 Entering Gaussian System, Link 0=g16
 Input=CH3SCH3.com
 Output=CH3SCH3.log
 Initial command:
 /home/zhuqiang/software/g16/l1.exe "/tmp/Gau-89389.inp" -scrdir="/tmp/"
 Entering Link 1 = /home/zhuqiang/software/g16/l1.exe PID=     89390.
  
 Copyright (c) 1988,1990,1992,1993,1995,1998,2003,2009,2016,
            Gaussian, Inc.  All Rights Reserved.
  
 This is part of the Gaussian(R) 16 program.  It is based on
 the Gaussian(R) 09 system (copyright 2009, Gaussian, Inc.),
 the Gaussian(R) 03 system (copyright 2003, Gaussian, Inc.),
 the Gaussian(R) 98 system (copyright 1998, Gaussian, Inc.),
 the Gaussian(R) 94 system (copyright 1995, Gaussian, Inc.),
 the Gaussian 92(TM) system (copyright 1992, Gaussian, Inc.),
 the Gaussian 90(TM) system (copyright 1990, Gaussian, Inc.),
 the Gaussian 88(TM) system (copyright 1988, Gaussian, Inc.),
 the Gaussian 86(TM) system (copyright 1986, Carnegie Mellon
 University), and the Gaussian 82(TM) system (copyright 1983,
 Carnegie Mellon University). Gaussian is a federally registered
 trademark of Gaussian, Inc.
  
 This software contains proprietary and confidential information,
 including trade secrets, belonging to Gaussian, Inc.
  
 This software is provided under written license and may be
 used, copied, transmitted, or stored only in accord with that
 written license.
  
 The following legend is applicable only to US Government
 contracts under FAR:
  
                    RESTRICTED RIGHTS LEGEND
  
 Use, reproduction and disclosure by the US Government is
 subject to restrictions as set forth in subparagraphs (a)
 and (c) of the Commercial Computer Software - Restricted
 Rights clause in FAR 52.227-19.
  
 Gaussian, Inc.
 340 Quinnipiac St., Bldg. 40, Wallingford CT 06492
  
  
 ---------------------------------------------------------------
 Warning -- This program may not be used in any manner that
 competes with the business of Gaussian, Inc. or will provide
 assistance to any competitor of Gaussian, Inc.  The licensee
 of this program is prohibited from giving any competitor of
 Gaussian, Inc. access to this program.  By using this program,
 the user acknowledges that Gaussian, Inc. is engaged in the
 business of creating and licensing software in the field of
 computational chemistry and represents and warrants to the
 licensee that it is not a competitor of Gaussian, Inc. and that
 it will not use this program in any manner prohibited above.
 ---------------------------------------------------------------
  

 Cite this work as:
 Gaussian 16, Revision A.03,
 M. J. Frisch, G. W. Trucks, H. B. Schlegel, G. E. Scuseria, 
 M. A. Robb, J. R. Cheeseman, G. Scalmani, V. Barone, 
 G. A. Petersson, H. Nakatsuji, X. Li, M. Caricato, A. V. Marenich, 
 J. Bloino, B. G. Janesko, R. Gomperts, B. Mennucci, H. P. Hratchian, 
 J. V. Ortiz, A. F. Izmaylov, J. L. Sonnenberg, D. Williams-Young, 
 F. Ding, F. Lipparini, F. Egidi, J. Goings, B. Peng, A. Petrone, 
 T. Henderson, D. Ranasinghe, V. G. Zakrzewski, J. Gao, N. Rega, 
 G. Zheng, W. Liang, M. Hada, M. Ehara, K. Toyota, R. Fukuda, 
 J. Hasegawa, M. Ishida, T. Nakajima, Y. Honda, O. Kitao, H. Nakai, 
 T. Vreven, K. Throssell, J. A. Montgomery, Jr., J. E. Peralta, 
 F. Ogliaro, M. J. Bearpark, J. J. Heyd, E. N. Brothers, K. N. Kudin, 
 V. N. Staroverov, T. A. Keith, R. Kobayashi, J. Normand, 
 K. Raghavachari, A. P. Rendell, J. C. Burant, S. S. Iyengar, 
 J. Tomasi, M. Cossi, J. M. Millam, M. Klene, C. Adamo, R. Cammi, 
 J. W. Ochterski, R. L. Martin, K. Morokuma, O. Farkas, 
 J. B. Foresman, and D. J. Fox, Gaussian, Inc., Wallingford CT, 2016.
 
 ******************************************
 Gaussian 16:  ES64L-G16RevA.03 25-Dec-2016
                14-Feb-2023 
 ******************************************
 %chk=CH3SCH3_a2z
 %nproc=28
 Will use up to   28 processors via shared memory.
 %mem=28GB
 ----------------------------------------------------------------------
 #b3lyp/aug-cc-pvdz #SCF=tight #maxdisk=200GB #Pop=MK iop(6/33=2) iop(6
 /42=6) iop(6/43=20) #IOP(5/87=12) #density=current
 ----------------------------------------------------------------------
 1/30=1,38=1,172=1/1;
 2/12=2,17=6,18=5,40=1/2;
 3/5=16,7=10,11=2,25=1,30=1,74=-5/1,2,3;
 4//1;
 5/5=2,32=2,38=5,87=12/2;
 6/7=2,8=2,9=2,10=2,15=8,20=1,22=-1,28=1,33=2,42=6,43=20/1,2;
 99/5=1,9=1/99;
 --------------------------------
 C3 MP2/6-311++G(d,p) coordinates
 --------------------------------
 Symbolic Z-matrix:
 Charge =  0 Multiplicity = 1
 C                    -1.3618   -0.51579  -0.00006 
 H                    -2.29382   0.05306  -0.0001 
 H                    -1.33874  -1.14443  -0.89395 
 H                    -1.33882  -1.14443   0.89384 
 S                     0.        0.66632  -0.00001 
 C                     1.3618   -0.51579   0.00007 
 H                     2.29382   0.05306   0.00011 
 H                     1.33873  -1.14443   0.89397 
 H                     1.33882  -1.14443  -0.89383 
 
                          Input orientation:                          
 ---------------------------------------------------------------------
 Center     Atomic      Atomic             Coordinates (Angstroms)
 Number     Number       Type             X           Y           Z
 ---------------------------------------------------------------------
      1          6           0       -1.361797   -0.515790   -0.000058
      2          1           0       -2.293815    0.053063   -0.000101
      3          1           0       -1.338738   -1.144434   -0.893950
      4          1           0       -1.338816   -1.144425    0.893843
      5         16           0        0.000000    0.666317   -0.000006
      6          6           0        1.361797   -0.515790    0.000067
      7          1           0        2.293815    0.053063    0.000109
      8          1           0        1.338734   -1.144425    0.893965
      9          1           0        1.338820   -1.144434   -0.893827
 ---------------------------------------------------------------------
                    Distance matrix (angstroms):
                    1          2          3          4          5
     1  C    0.000000
     2  H    1.091903   0.000000
     3  H    1.093055   1.773454   0.000000
     4  H    1.093055   1.773454   1.787793   0.000000
     5  S    1.803293   2.374378   2.422845   2.422845   0.000000
     6  C    2.723594   3.699607   2.913306   2.913301   1.803293
     7  H    3.699607   4.587631   3.927950   3.927944   2.374378
     8  H    2.913302   3.927944   3.219549   2.677549   2.422845
     9  H    2.913306   3.927950   2.677559   3.219549   2.422845
                    6          7          8          9
     6  C    0.000000
     7  H    1.091903   0.000000
     8  H    1.093055   1.773454   0.000000
     9  H    1.093055   1.773454   1.787793   0.000000
 Stoichiometry    C2H6S
 Framework group  C1[X(C2H6S)]
 Deg. of freedom    21
 Full point group                 C1      NOp   1
 Largest Abelian subgroup         C1      NOp   1
 Largest concise Abelian subgroup C1      NOp   1
                         Standard orientation:                         
 ---------------------------------------------------------------------
 Center     Atomic      Atomic             Coordinates (Angstroms)
 Number     Number       Type             X           Y           Z
 ---------------------------------------------------------------------
      1          6           0       -1.361797   -0.515790   -0.000058
      2          1           0       -2.293815    0.053063   -0.000101
      3          1           0       -1.338738   -1.144434   -0.893950
      4          1           0       -1.338816   -1.144425    0.893843
      5         16           0        0.000000    0.666317   -0.000006
      6          6           0        1.361797   -0.515790    0.000067
      7          1           0        2.293815    0.053063    0.000109
      8          1           0        1.338734   -1.144425    0.893965
      9          1           0        1.338820   -1.144434   -0.893827
 ---------------------------------------------------------------------
 Rotational constants (GHZ):          17.5650359           7.7086595           5.7501730
 Standard basis: Aug-CC-pVDZ (5D, 7F)
 There are   133 symmetry adapted cartesian basis functions of A   symmetry.
 There are   127 symmetry adapted basis functions of A   symmetry.
   127 basis functions,   233 primitive gaussians,   133 cartesian basis functions
    17 alpha electrons       17 beta electrons
       nuclear repulsion energy       111.1215303913 Hartrees.
 NAtoms=    9 NActive=    9 NUniq=    9 SFac= 1.00D+00 NAtFMM=   60 NAOKFM=F Big=F
 Integral buffers will be    131072 words long.
 Raffenetti 2 integral format.
 Two-electron integral symmetry is turned on.
 One-electron integrals computed using PRISM.
 NBasis=   127 RedAO= T EigKep=  3.34D-04  NBF=   127
 NBsUse=   127 1.00D-06 EigRej= -1.00D+00 NBFU=   127
 ExpMin= 2.97D-02 ExpMax= 1.11D+05 ExpMxC= 1.07D+03 IAcc=3 IRadAn=         5 AccDes= 0.00D+00
 Harris functional with IExCor=  402 and IRadAn=       5 diagonalized for initial guess.
 HarFok:  IExCor=  402 AccDes= 0.00D+00 IRadAn=         5 IDoV= 1 UseB2=F ITyADJ=14
 ICtDFT=  3500011 ScaDFX=  1.000000  1.000000  1.000000  1.000000
 FoFCou: FMM=F IPFlag=           0 FMFlag=      100000 FMFlg1=           0
         NFxFlg=           0 DoJE=T BraDBF=F KetDBF=T FulRan=T
         wScrn=  0.000000 ICntrl=       500 IOpCl=  0 I1Cent=   200000004 NGrid=           0
         NMat0=    1 NMatS0=      1 NMatT0=    0 NMatD0=    1 NMtDS0=    0 NMtDT0=    0
 Petite list used in FoFCou.
 Keep R1 ints in memory in canonical form, NReq=59878419.
 Requested convergence on RMS density matrix=1.00D-08 within 128 cycles.
 Requested convergence on MAX density matrix=1.00D-06.
 Requested convergence on             energy=1.00D-06.
 No special actions if energy rises.
 SCF Done:  E(RB3LYP) =  -478.040172918     A.U. after   10 cycles
            NFock= 10  Conv=0.12D-08     -V/T= 2.0032
 SCF density gives NOpUse=  1 NOpAll=  1.

 **********************************************************************

            Population analysis using the SCF density.

 **********************************************************************

 Orbital symmetries:
 BldTbl:  Degeneracy threshold= 1.00D-02
       Occupied  (A) (A) (A) (A) (A) (A) (A) (A) (A) (A) (A) (A)
                 (A) (A) (A) (A) (A)
       Virtual   (A) (A) (A) (A) (A) (A) (A) (A) (A) (A) (A) (A)
                 (A) (A) (A) (A) (A) (A) (A) (A) (A) (A) (A) (A)
                 (A) (A) (A) (A) (A) (A) (A) (A) (A) (A) (A) (A)
                 (A) (A) (A) (A) (A) (A) (A) (A) (A) (A) (A) (A)
                 (A) (A) (A) (A) (A) (A) (A) (A) (A) (A) (A) (A)
                 (A) (A) (A) (A) (A) (A) (A) (A) (A) (A) (A) (A)
                 (A) (A) (A) (A) (A) (A) (A) (A) (A) (A) (A) (A)
                 (A) (A) (A) (A) (A) (A) (A) (A) (A) (A) (A) (A)
                 (A) (A) (A) (A) (A) (A) (A) (A) (A) (A) (A) (A)
                 (A) (A)
 The electronic state is 1-A.
 Alpha  occ. eigenvalues --  -88.87412 -10.20880 -10.20877  -7.93510  -5.89956
 Alpha  occ. eigenvalues --   -5.89589  -5.88875  -0.80447  -0.70908  -0.60173
 Alpha  occ. eigenvalues --   -0.44550  -0.44386  -0.42774  -0.41094  -0.36672
 Alpha  occ. eigenvalues --   -0.31871  -0.22350
 Alpha virt. eigenvalues --   -0.01109  -0.00204   0.01804   0.01855   0.03382
 Alpha virt. eigenvalues --    0.04211   0.04731   0.05112   0.07000   0.08864
 Alpha virt. eigenvalues --    0.09469   0.10396   0.10758   0.10880   0.11982
 Alpha virt. eigenvalues --    0.12109   0.12723   0.14355   0.14464   0.14704
 Alpha virt. eigenvalues --    0.15456   0.16555   0.20093   0.22113   0.22850
 Alpha virt. eigenvalues --    0.23856   0.28982   0.29332   0.31741   0.32913
 Alpha virt. eigenvalues --    0.33190   0.33629   0.35149   0.36121   0.36977
 Alpha virt. eigenvalues --    0.37468   0.39892   0.41447   0.42617   0.43823
 Alpha virt. eigenvalues --    0.45932   0.46270   0.46649   0.47503   0.48640
 Alpha virt. eigenvalues --    0.50059   0.50348   0.52273   0.53598   0.55002
 Alpha virt. eigenvalues --    0.55306   0.55913   0.61154   0.62064   0.64813
 Alpha virt. eigenvalues --    0.65391   0.68276   0.68362   0.70643   0.75137
 Alpha virt. eigenvalues --    0.80015   0.84146   0.87269   0.88961   0.90471
 Alpha virt. eigenvalues --    0.94206   0.95706   0.99189   1.00284   1.00802
 Alpha virt. eigenvalues --    1.01860   1.02321   1.07533   1.14219   1.18168
 Alpha virt. eigenvalues --    1.21198   1.26328   1.27871   1.29390   1.43772
 Alpha virt. eigenvalues --    1.54904   1.57616   1.58272   1.60228   1.63618
 Alpha virt. eigenvalues --    1.66973   1.78622   1.78683   1.79815   1.83984
 Alpha virt. eigenvalues --    1.85637   1.89939   1.90282   1.92212   1.93781
 Alpha virt. eigenvalues --    1.96666   1.97044   2.01052   2.17194   2.21528
 Alpha virt. eigenvalues --    2.25672   2.27116   2.28214   2.32367   2.50103
 Alpha virt. eigenvalues --    2.51652   2.56061   2.63781   2.64249   2.66467
          Condensed to atoms (all electrons):
               1          2          3          4          5          6
     1  C    4.314658   0.316219   0.317632   0.317632   0.136062  -0.016310
     2  H    0.316219   1.663566  -0.273769  -0.273769  -0.157144   0.033026
     3  H    0.317632  -0.273769   1.541106  -0.200454  -0.068372  -0.047259
     4  H    0.317632  -0.273769  -0.200454   1.541106  -0.068372  -0.047261
     5  S    0.136062  -0.157144  -0.068372  -0.068372  16.028371   0.136062
     6  C   -0.016310   0.033026  -0.047259  -0.047261   0.136062   4.314658
     7  H    0.033026  -0.013585   0.012545   0.012545  -0.157144   0.316219
     8  H   -0.047261   0.012545  -0.043079   0.011453  -0.068372   0.317632
     9  H   -0.047259   0.012545   0.011453  -0.043079  -0.068372   0.317632
               7          8          9
     1  C    0.033026  -0.047261  -0.047259
     2  H   -0.013585   0.012545   0.012545
     3  H    0.012545  -0.043079   0.011453
     4  H    0.012545   0.011453  -0.043079
     5  S   -0.157144  -0.068372  -0.068372
     6  C    0.316219   0.317632   0.317632
     7  H    1.663566  -0.273769  -0.273769
     8  H   -0.273769   1.541106  -0.200454
     9  H   -0.273769  -0.200454   1.541106
 Mulliken charges:
               1
     1  C    0.675600
     2  H   -0.319634
     3  H   -0.249803
     4  H   -0.249803
     5  S    0.287280
     6  C    0.675600
     7  H   -0.319634
     8  H   -0.249803
     9  H   -0.249803
 Sum of Mulliken charges =  -0.00000
 Mulliken charges with hydrogens summed into heavy atoms:
               1
     1  C   -0.143640
     5  S    0.287280
     6  C   -0.143640
 DipInt: DoE/N= T F RetVal/Mat= T F Init=T NMatP=  1 IDeriv=0 Min/MaxMlt=  0  4
 Entering OneElI...
 OneElI was handed  3758048873 working-precision words.
 Multipole integrals L=0 to 4 MinM= 0 MaxM= 0.
 Requested accuracy = 0.1000D-12
 ShPair: Thresh= 1.00D-13 NBox=     0 BxSize= 0.00D+00 RnKept= 8.67D+00
         NSMCal=                 1770 NSMKep=                1770
 PrmmSu-InSpLW:  IPartL=    0 NPrtUS=    1 NPrtUL=    1 DoSpLW=F IThBeg=    0 IThEnd=    0 NThAct=    1.
 PrsmSu:  NPrtUS=   1 ThrOK=F IAlg=1 NPAlg=1 LenDen=           0 ISkipM=0 DoSpLW=F IThBeg=    0 IThEnd=    0.
 Prism:   IPart=     0 DynPar=F LinDyn=F Incr=          17.
 PRISM was handed  3757898352 working-precision words and  1770 shell-pairs
 IPart=  0 NShTot=        1770 NBatch=          55 AvBLen=        32.2
 PrsmSu-ThDecC:  IPartSL=    0    0 NPrtUSL=    1    1 IThBeg=    0 IThEnd=    0 CPU=   -1 GPU=   -1 NThAct=    1.
 PrSmSu:  NxtVal=             18.
 Electronic moments (au):
        -34.00000000         -0.00000000         -0.63499763          0.00000538
       -160.88527492        -76.98093797        -33.01261733         -0.00000005
         -0.00585587          0.00038362         -0.00000004         18.06427664
         -0.00039439          0.00000010        132.21773275         -0.00119096
         -0.00000009         19.79291701          0.00010298          0.00514944
      -1976.51140586       -446.92500927       -171.87711169         -0.00000052
         -0.06320054         -0.00000031          0.00092743         -0.01944072
          0.00162275       -346.34269680       -198.73385340       -126.47446990
          0.00100330         -0.01006630         -0.00000003
 Electronic spatial extent (au):  <R**2>=            270.8788
 DipInt: DoE/N= F T RetVal/Mat= T F Init=T NMatP=  1 IDeriv=0 Min/MaxMlt=  0  4
 Nuclear    moments (au):
         34.00000000          0.00000000         -0.00000000         -0.00000000
        142.65104962         55.49658360         11.41384768          0.00000005
          0.00600988         -0.00038686          0.00000004        -19.62814110
          0.00049071         -0.00000010       -129.05978029          0.00118311
          0.00000009        -24.68425812         -0.00015526         -0.00478099
       1396.24582500        138.55164179         32.56897893          0.00000046
          0.05389069          0.00000023         -0.00023551          0.00855580
         -0.00090077        195.62082728         73.05438026         53.38362869
         -0.00074347          0.00651025          0.00000000
 Total      moments (au):
         -0.00000000          0.00000000         -0.63499763          0.00000538
        -18.23422531        -21.48435437        -21.59876965          0.00000000
          0.00015401         -0.00000325         -0.00000000         -1.56386446
          0.00009633          0.00000000          3.15795246         -0.00000785
         -0.00000000         -4.89134111         -0.00005228          0.00036845
       -580.26558086       -308.37336747       -139.30813276         -0.00000006
         -0.00930985         -0.00000008          0.00069192         -0.01088492
          0.00072198       -150.72186952       -125.67947314        -73.09084121
          0.00025983         -0.00355605         -0.00000003
 Traceless Quadrup. (au):
          2.20489114         -1.04523793         -1.15965321          0.00000000
          0.00015401         -0.00000325
 Charge=             -0.0000 electrons
 Dipole moment (field-independent basis, Debye):
    X=              0.0000    Y=             -1.6140    Z=              0.0000  Tot=              1.6140
 Quadrupole moment (field-independent basis, Debye-Ang):
   XX=            -24.5257   YY=            -28.8972   ZZ=            -29.0511
   XY=              0.0000   XZ=              0.0002   YZ=             -0.0000
 Traceless Quadrupole moment (field-independent basis, Debye-Ang):
   XX=              2.9657   YY=             -1.4059   ZZ=             -1.5598
   XY=              0.0000   XZ=              0.0002   YZ=             -0.0000
 Octapole moment (field-independent basis, Debye-Ang**2):
  XXX=             -0.0000  YYY=             -1.1131  ZZZ=              0.0001  XYY=              0.0000
  XXY=              2.2477  XXZ=             -0.0000  XZZ=             -0.0000  YZZ=             -3.4815
  YYZ=             -0.0000  XYZ=              0.0003
 Hexadecapole moment (field-independent basis, Debye-Ang**3):
 XXXX=           -218.5558 YYYY=           -116.1482 ZZZZ=            -52.4701 XXXY=             -0.0000
 XXXZ=             -0.0035 YYYX=             -0.0000 YYYZ=              0.0003 ZZZX=             -0.0041
 ZZZY=              0.0003 XXYY=            -56.7691 XXZZ=            -47.3369 YYZZ=            -27.5295
 XXYZ=              0.0001 YYXZ=             -0.0013 ZZXY=             -0.0000
 N-N= 1.111215303913D+02 E-N=-1.353150989000D+03  KE= 4.764927643800D+02
 Entering OneElI...
 OneElI was handed  3758058983 working-precision words.
 Calculate electrostatic properties
    NBasis =   127  MinDer = 0  MaxDer = 0
    NGrid  =     9  NMatD  =   1
 Requested accuracy = 0.1000D-12
 ShPair: Thresh= 1.00D-13 NBox=     0 BxSize= 0.00D+00 RnKept= 8.67D+00
         NSMCal=                 1770 NSMKep=                1765
 PrmmSu-InSpLW:  IPartL=    0 NPrtUS=   28 NPrtUL=    1 DoSpLW=F IThBeg=    0 IThEnd=   27 NThAct=   28.
 PrsmSu:  NPrtUS=  28 ThrOK=T IAlg=1 NPAlg=1 LenDen=           0 ISkipM=0 DoSpLW=F IThBeg=    0 IThEnd=   27.
 Prism:   IPart=     0 DynPar=F LinDyn=F Incr=           5.
 PRISM was handed   134156315 working-precision words and  1765 shell-pairs
 PRISM was handed   134156315 working-precision words and  1765 shell-pairs
 PRISM was handed   134156315 working-precision words and  1765 shell-pairs
 PRISM was handed   134156315 working-precision words and  1765 shell-pairs
 PRISM was handed   134156315 working-precision words and  1765 shell-pairs
 PRISM was handed   134156315 working-precision words and  1765 shell-pairs
 PRISM was handed   134156315 working-precision words and  1765 shell-pairs
 PRISM was handed   134156315 working-precision words and  1765 shell-pairs
 PRISM was handed   134156315 working-precision words and  1765 shell-pairs
 PRISM was handed   134156315 working-precision words and  1765 shell-pairs
 PRISM was handed   134156315 working-precision words and  1765 shell-pairs
 PRISM was handed   134156315 working-precision words and  1765 shell-pairs
 PRISM was handed   134156315 working-precision words and  1765 shell-pairs
 PRISM was handed   134156315 working-precision words and  1765 shell-pairs
 PRISM was handed   134156315 working-precision words and  1765 shell-pairs
 PRISM was handed   134156315 working-precision words and  1765 shell-pairs
 PRISM was handed   134156315 working-precision words and  1765 shell-pairs
 PRISM was handed   134156315 working-precision words and  1765 shell-pairs
 PRISM was handed   134156315 working-precision words and  1765 shell-pairs
 PRISM was handed   134156315 working-precision words and  1765 shell-pairs
 PRISM was handed   134156315 working-precision words and  1765 shell-pairs
 PRISM was handed   134156315 working-precision words and  1765 shell-pairs
 PRISM was handed   134156315 working-precision words and  1765 shell-pairs
 PRISM was handed   134156315 working-precision words and  1765 shell-pairs
 PRISM was handed   134156315 working-precision words and  1765 shell-pairs
 PRISM was handed   134156315 working-precision words and  1765 shell-pairs
 PRISM was handed   134156315 working-precision words and  1765 shell-pairs
 PRISM was handed   134156315 working-precision words and  1765 shell-pairs
 IPart=  0 NShTot=         873 NBatch=          97 AvBLen=         9.0
 PrsmSu-ThDecC:  IPartSL=    0    0 NPrtUSL=   28    1 IThBeg=    0 IThEnd=   27 CPU=   -1 GPU=   -1 NThAct=   28.
 IPart= 22 NShTot=         486 NBatch=          54 AvBLen=         9.0
 PrsmSu-ThDecC:  IPartSL=   22    0 NPrtUSL=   28    1 IThBeg=    0 IThEnd=   27 CPU=   -1 GPU=   -1 NThAct=   27.
 IPart= 18 NShTot=         495 NBatch=          55 AvBLen=         9.0
 PrsmSu-ThDecC:  IPartSL=   18    0 NPrtUSL=   28    1 IThBeg=    0 IThEnd=   27 CPU=   -1 GPU=   -1 NThAct=   26.
 IPart= 11 NShTot=         549 NBatch=          61 AvBLen=         9.0
 PrsmSu-ThDecC:  IPartSL=   11    0 NPrtUSL=   28    1 IThBeg=    0 IThEnd=   27 CPU=   -1 GPU=   -1 NThAct=   25.
 IPart= 25 NShTot=         450 NBatch=          50 AvBLen=         9.0
 PrsmSu-ThDecC:  IPartSL=   25    0 NPrtUSL=   28    1 IThBeg=    0 IThEnd=   27 CPU=   -1 GPU=   -1 NThAct=   24.
 IPart=  8 NShTot=         594 NBatch=          66 AvBLen=         9.0
 PrsmSu-ThDecC:  IPartSL=    8    0 NPrtUSL=   28    1 IThBeg=    0 IThEnd=   27 CPU=   -1 GPU=   -1 NThAct=   23.
 IPart= 14 NShTot=         504 NBatch=          56 AvBLen=         9.0
 PrsmSu-ThDecC:  IPartSL=   14    0 NPrtUSL=   28    1 IThBeg=    0 IThEnd=   27 CPU=   -1 GPU=   -1 NThAct=   22.
 IPart= 26 NShTot=         450 NBatch=          50 AvBLen=         9.0
 PrsmSu-ThDecC:  IPartSL=   26    0 NPrtUSL=   28    1 IThBeg=    0 IThEnd=   27 CPU=   -1 GPU=   -1 NThAct=   21.
 IPart= 19 NShTot=         495 NBatch=          55 AvBLen=         9.0
 PrsmSu-ThDecC:  IPartSL=   19    0 NPrtUSL=   28    1 IThBeg=    0 IThEnd=   27 CPU=   -1 GPU=   -1 NThAct=   20.
 IPart= 23 NShTot=         486 NBatch=          54 AvBLen=         9.0
 IPart=  3 NShTot=         738 NBatch=          82 AvBLen=         9.0
 PrsmSu-ThDecC:  IPartSL=   23    0 NPrtUSL=   28    1 IThBeg=    0 IThEnd=   27 CPU=   -1 GPU=   -1 NThAct=   19.
 PrsmSu-ThDecC:  IPartSL=    3    0 NPrtUSL=   28    1 IThBeg=    0 IThEnd=   27 CPU=   -1 GPU=   -1 NThAct=   18.
 IPart= 12 NShTot=         522 NBatch=          58 AvBLen=         9.0
 IPart=  7 NShTot=         621 NBatch=          69 AvBLen=         9.0
 PrsmSu-ThDecC:  IPartSL=   12    0 NPrtUSL=   28    1 IThBeg=    0 IThEnd=   27 CPU=   -1 GPU=   -1 NThAct=   17.
 PrsmSu-ThDecC:  IPartSL=    7    0 NPrtUSL=   28    1 IThBeg=    0 IThEnd=   27 CPU=   -1 GPU=   -1 NThAct=   16.
 IPart=  4 NShTot=         666 NBatch=          74 AvBLen=         9.0
 PrsmSu-ThDecC:  IPartSL=    4    0 NPrtUSL=   28    1 IThBeg=    0 IThEnd=   27 CPU=   -1 GPU=   -1 NThAct=   15.
 IPart= 15 NShTot=         504 NBatch=          56 AvBLen=         9.0
 PrsmSu-ThDecC:  IPartSL=   15    0 NPrtUSL=   28    1 IThBeg=    0 IThEnd=   27 CPU=   -1 GPU=   -1 NThAct=   14.
 IPart= 10 NShTot=         549 NBatch=          61 AvBLen=         9.0
 PrsmSu-ThDecC:  IPartSL=   10    0 NPrtUSL=   28    1 IThBeg=    0 IThEnd=   27 CPU=   -1 GPU=   -1 NThAct=   13.
 IPart=  5 NShTot=         666 NBatch=          74 AvBLen=         9.0
 PrsmSu-ThDecC:  IPartSL=    5    0 NPrtUSL=   28    1 IThBeg=    0 IThEnd=   27 CPU=   -1 GPU=   -1 NThAct=   12.
 IPart=  9 NShTot=         585 NBatch=          65 AvBLen=         9.0
 IPart= 13 NShTot=         522 NBatch=          58 AvBLen=         9.0
 PrsmSu-ThDecC:  IPartSL=    9    0 NPrtUSL=   28    1 IThBeg=    0 IThEnd=   27 CPU=   -1 GPU=   -1 NThAct=   11.
 PrsmSu-ThDecC:  IPartSL=   13    0 NPrtUSL=   28    1 IThBeg=    0 IThEnd=   27 CPU=   -1 GPU=   -1 NThAct=   10.
 IPart= 24 NShTot=         450 NBatch=          50 AvBLen=         9.0
 PrsmSu-ThDecC:  IPartSL=   24    0 NPrtUSL=   28    1 IThBeg=    0 IThEnd=   27 CPU=   -1 GPU=   -1 NThAct=    9.
 IPart= 16 NShTot=         504 NBatch=          56 AvBLen=         9.0
 PrsmSu-ThDecC:  IPartSL=   16    0 NPrtUSL=   28    1 IThBeg=    0 IThEnd=   27 CPU=   -1 GPU=   -1 NThAct=    8.
 IPart= 27 NShTot=         450 NBatch=          50 AvBLen=         9.0
 PrsmSu-ThDecC:  IPartSL=   27    0 NPrtUSL=   28    1 IThBeg=    0 IThEnd=   27 CPU=   -1 GPU=   -1 NThAct=    7.
 IPart= 17 NShTot=         504 NBatch=          56 AvBLen=         9.0
 PrsmSu-ThDecC:  IPartSL=   17    0 NPrtUSL=   28    1 IThBeg=    0 IThEnd=   27 CPU=   -1 GPU=   -1 NThAct=    6.
 IPart= 21 NShTot=         486 NBatch=          54 AvBLen=         9.0
 PrsmSu-ThDecC:  IPartSL=   21    0 NPrtUSL=   28    1 IThBeg=    0 IThEnd=   27 CPU=   -1 GPU=   -1 NThAct=    5.
 IPart= 20 NShTot=         495 NBatch=          55 AvBLen=         9.0
 PrsmSu-ThDecC:  IPartSL=   20    0 NPrtUSL=   28    1 IThBeg=    0 IThEnd=   27 CPU=   -1 GPU=   -1 NThAct=    4.
 IPart=  1 NShTot=         855 NBatch=          95 AvBLen=         9.0
 PrsmSu-ThDecC:  IPartSL=    1    0 NPrtUSL=   28    1 IThBeg=    0 IThEnd=   27 CPU=   -1 GPU=   -1 NThAct=    3.
 IPart=  6 NShTot=         621 NBatch=          69 AvBLen=         9.0
 PrsmSu-ThDecC:  IPartSL=    6    0 NPrtUSL=   28    1 IThBeg=    0 IThEnd=   27 CPU=   -1 GPU=   -1 NThAct=    2.
 IPart=  2 NShTot=         765 NBatch=          85 AvBLen=         9.0
 PrsmSu-ThDecC:  IPartSL=    2    0 NPrtUSL=   28    1 IThBeg=    0 IThEnd=   27 CPU=   -1 GPU=   -1 NThAct=    1.
 PrSmSu:  NxtVal=            141.
 --------------------------------------------------------
       Center         ----      EFG at Nuclei      ----
                      3XX-RR        3YY-RR        3ZZ-RR
 --------------------------------------------------------
     1   Atom       -0.061605     -0.035497      0.097101
     2   Atom       -0.182251      0.023561      0.158690
     3   Atom        0.150543      0.004208     -0.154751
     4   Atom        0.150545      0.004212     -0.154757
     5   Atom       -2.183653     -0.612123      2.795777
     6   Atom       -0.061605     -0.035497      0.097101
     7   Atom       -0.182251      0.023561      0.158690
     8   Atom        0.150543      0.004212     -0.154755
     9   Atom        0.150545      0.004208     -0.154753
 --------------------------------------------------------
                        XY            XZ            YZ
 --------------------------------------------------------
     1   Atom       -0.144429     -0.000006     -0.000005
     2   Atom        0.202934     -0.000016      0.000009
     3   Atom        0.005297      0.012742     -0.215395
     4   Atom        0.005279     -0.012716      0.215394
     5   Atom       -0.000000     -0.000228      0.000030
     6   Atom        0.144429     -0.000009      0.000008
     7   Atom       -0.202934     -0.000015     -0.000009
     8   Atom       -0.005298      0.012744      0.215394
     9   Atom       -0.005278     -0.012714     -0.215396
 --------------------------------------------------------


 ---------------------------------------------------------------------------------
              Nuclear Quadrupole Coupling Constant in Principal Axis System
 ---------------------------------------------------------------------------------

       Atom             a.u.   MegaHertz   Gauss  10(-4) cm-1        Axes


 ---------------------------------------------------------------------------------

 No NMR shielding tensors so no spin-rotation constants.
 Leave Link  601 at Tue Feb 14 10:18:44 2023, MaxMem=  3758096384 cpu:               4.5 elap:               0.2
 FitSet:  NAtFit=     9 NAtPot=     9 NAtFrz=     0 MDM=    13 TotChg=   0.00000
 Merz-Kollman atomic radii used.
 Atom Element Radius
    1     6    1.50
    2     1    1.20
    3     1    1.20
    4     1    1.20
    5    16    1.75
    6     6    1.50
    7     1    1.20
    8     1    1.20
    9     1    1.20
 Generate VDW surfaces: Layer= 4 Dens= 6 Start= 1.400 Inc= 0.200

 **********************************************************************

            Electrostatic Properties Using The SCF Density

 **********************************************************************

       Atomic Center    1 is at  -1.361797 -0.515790 -0.000058
       Atomic Center    2 is at  -2.293815  0.053063 -0.000101
       Atomic Center    3 is at  -1.338738 -1.144434 -0.893950
       Atomic Center    4 is at  -1.338816 -1.144425  0.893843
       Atomic Center    5 is at   0.000000  0.666317 -0.000006
       Atomic Center    6 is at   1.361797 -0.515790  0.000067
       Atomic Center    7 is at   2.293815  0.053063  0.000109
       Atomic Center    8 is at   1.338734 -1.144425  0.893965
       Atomic Center    9 is at   1.338820 -1.144434 -0.893827
      ESP Fit Center   10 is at  -1.763614  0.180179  1.940089
      ESP Fit Center   11 is at  -2.064889  0.415255  1.746028
      ESP Fit Center   12 is at  -2.353743  0.098397  1.746028
      ESP Fit Center   13 is at  -1.978657  0.834945  1.484866
      ESP Fit Center   14 is at  -2.846721 -0.515790  1.484866
      ESP Fit Center   15 is at  -3.057145 -0.933655  1.166640
      ESP Fit Center   16 is at  -3.200383 -1.135282  0.803577
      ESP Fit Center   17 is at  -3.024226 -1.516040  0.803577
      ESP Fit Center   18 is at  -3.162644 -1.515341  0.409632
      ESP Fit Center   19 is at  -2.924572 -1.857388  0.409632
      ESP Fit Center   20 is at  -2.622520 -2.144510  0.409632
      ESP Fit Center   21 is at  -3.301944 -1.319425 -0.000058
      ESP Fit Center   22 is at  -3.107883 -1.682487 -0.000058
      ESP Fit Center   23 is at  -2.846721 -2.000714 -0.000058
      ESP Fit Center   24 is at  -2.528494 -2.261876 -0.000058
      ESP Fit Center   25 is at  -2.165432 -2.455937 -0.000058
      ESP Fit Center   26 is at  -1.771487 -2.575439 -0.000058
      ESP Fit Center   27 is at  -1.361797 -2.615790 -0.000058
      ESP Fit Center   28 is at  -0.952107 -2.575439 -0.000058
      ESP Fit Center   29 is at  -0.558162 -2.455937 -0.000058
      ESP Fit Center   30 is at  -0.195099 -2.261876 -0.000058
      ESP Fit Center   31 is at  -3.162644 -1.515341 -0.409748
      ESP Fit Center   32 is at  -2.924572 -1.857388 -0.409748
      ESP Fit Center   33 is at  -2.622520 -2.144510 -0.409748
      ESP Fit Center   34 is at  -3.200383 -1.135282 -0.803693
      ESP Fit Center   35 is at  -3.024226 -1.516040 -0.803693
      ESP Fit Center   36 is at  -3.057145 -0.933655 -1.166755
      ESP Fit Center   37 is at  -1.978657  0.834945 -1.484982
      ESP Fit Center   38 is at  -2.846721 -0.515790 -1.484982
      ESP Fit Center   39 is at  -2.064889  0.415255 -1.746144
      ESP Fit Center   40 is at  -2.353743  0.098397 -1.746144
      ESP Fit Center   41 is at  -1.763614  0.180179 -1.940205
      ESP Fit Center   42 is at  -2.511223  0.429625  1.622654
      ESP Fit Center   43 is at  -2.728631  0.053063  1.622654
      ESP Fit Center   44 is at  -2.293815  0.893063  1.454822
      ESP Fit Center   45 is at  -2.713815  0.780525  1.454822
      ESP Fit Center   46 is at  -3.021277  0.473063  1.454822
      ESP Fit Center   47 is at  -3.133815  0.053063  1.454822
      ESP Fit Center   48 is at  -3.021277 -0.366937  1.454822
      ESP Fit Center   49 is at  -2.184206  1.235935  1.187838
      ESP Fit Center   50 is at  -2.618911  1.195654  1.187838
      ESP Fit Center   51 is at  -3.009709  1.001059  1.187838
      ESP Fit Center   52 is at  -3.303822  0.678433  1.187838
      ESP Fit Center   53 is at  -3.461528  0.271347  1.187838
      ESP Fit Center   54 is at  -3.461528 -0.165220  1.187838
      ESP Fit Center   55 is at  -3.303822 -0.572306  1.187838
      ESP Fit Center   56 is at  -2.185089  1.503918  0.839899
      ESP Fit Center   57 is at  -2.617566  1.471508  0.839899
      ESP Fit Center   58 is at  -3.021277  1.313063  0.839899
      ESP Fit Center   59 is at  -3.360349  1.042662  0.839899
      ESP Fit Center   60 is at  -3.604656  0.684331  0.839899
      ESP Fit Center   61 is at  -3.732488  0.269908  0.839899
      ESP Fit Center   62 is at  -3.732488 -0.163782  0.839899
      ESP Fit Center   63 is at  -3.604656 -0.578204  0.839899
      ESP Fit Center   64 is at  -3.360349 -0.936535  0.839899
      ESP Fit Center   65 is at  -2.293815  1.675819  0.434715
      ESP Fit Center   66 is at  -2.713815  1.620525  0.434715
      ESP Fit Center   67 is at  -3.105193  1.458411  0.434715
      ESP Fit Center   68 is at  -3.441277  1.200525  0.434715
      ESP Fit Center   69 is at  -3.699163  0.864441  0.434715
      ESP Fit Center   70 is at  -3.861277  0.473063  0.434715
      ESP Fit Center   71 is at  -3.916571  0.053063  0.434715
      ESP Fit Center   72 is at  -3.861277 -0.366937  0.434715
      ESP Fit Center   73 is at  -3.699163 -0.758314  0.434715
      ESP Fit Center   74 is at  -3.441277 -1.094398  0.434715
      ESP Fit Center   75 is at  -2.608616  1.703306 -0.000101
      ESP Fit Center   76 is at  -3.009125  1.573173 -0.000101
      ESP Fit Center   77 is at  -3.364688  1.347525 -0.000101
      ESP Fit Center   78 is at  -3.652964  1.040542 -0.000101
      ESP Fit Center   79 is at  -3.855840  0.671512 -0.000101
      ESP Fit Center   80 is at  -3.960568  0.263623 -0.000101
      ESP Fit Center   81 is at  -3.960568 -0.157497 -0.000101
      ESP Fit Center   82 is at  -3.855840 -0.565386 -0.000101
      ESP Fit Center   83 is at  -3.652964 -0.934416 -0.000101
      ESP Fit Center   84 is at  -3.364688 -1.241399 -0.000101
      ESP Fit Center   85 is at  -2.293815  1.675819 -0.434917
      ESP Fit Center   86 is at  -2.713815  1.620525 -0.434917
      ESP Fit Center   87 is at  -3.105193  1.458411 -0.434917
      ESP Fit Center   88 is at  -3.441277  1.200525 -0.434917
      ESP Fit Center   89 is at  -3.699163  0.864441 -0.434917
      ESP Fit Center   90 is at  -3.861277  0.473063 -0.434917
      ESP Fit Center   91 is at  -3.916571  0.053063 -0.434917
      ESP Fit Center   92 is at  -3.861277 -0.366937 -0.434917
      ESP Fit Center   93 is at  -3.699163 -0.758314 -0.434917
      ESP Fit Center   94 is at  -3.441277 -1.094398 -0.434917
      ESP Fit Center   95 is at  -2.185089  1.503918 -0.840101
      ESP Fit Center   96 is at  -2.617566  1.471508 -0.840101
      ESP Fit Center   97 is at  -3.021277  1.313063 -0.840101
      ESP Fit Center   98 is at  -3.360349  1.042662 -0.840101
      ESP Fit Center   99 is at  -3.604656  0.684331 -0.840101
      ESP Fit Center  100 is at  -3.732488  0.269908 -0.840101
      ESP Fit Center  101 is at  -3.732488 -0.163782 -0.840101
      ESP Fit Center  102 is at  -3.604656 -0.578204 -0.840101
      ESP Fit Center  103 is at  -3.360349 -0.936535 -0.840101
      ESP Fit Center  104 is at  -2.184206  1.235935 -1.188040
      ESP Fit Center  105 is at  -2.618911  1.195654 -1.188040
      ESP Fit Center  106 is at  -3.009709  1.001059 -1.188040
      ESP Fit Center  107 is at  -3.303822  0.678433 -1.188040
      ESP Fit Center  108 is at  -3.461528  0.271347 -1.188040
      ESP Fit Center  109 is at  -3.461528 -0.165220 -1.188040
      ESP Fit Center  110 is at  -3.303822 -0.572306 -1.188040
      ESP Fit Center  111 is at  -2.293815  0.893063 -1.455024
      ESP Fit Center  112 is at  -2.713815  0.780525 -1.455024
      ESP Fit Center  113 is at  -3.021277  0.473063 -1.455024
      ESP Fit Center  114 is at  -3.133815  0.053063 -1.455024
      ESP Fit Center  115 is at  -3.021277 -0.366937 -1.455024
      ESP Fit Center  116 is at  -2.511223  0.429625 -1.622856
      ESP Fit Center  117 is at  -2.728631  0.053063 -1.622856
      ESP Fit Center  118 is at  -2.486200 -2.291895 -0.459134
      ESP Fit Center  119 is at  -2.150116 -2.549781 -0.459134
      ESP Fit Center  120 is at  -1.758738 -2.711895 -0.459134
      ESP Fit Center  121 is at  -1.338738 -2.767189 -0.459134
      ESP Fit Center  122 is at  -0.918738 -2.711895 -0.459134
      ESP Fit Center  123 is at  -0.527361 -2.549781 -0.459134
      ESP Fit Center  124 is at  -0.191277 -2.291895 -0.459134
      ESP Fit Center  125 is at  -2.900763 -1.762883 -0.893950
      ESP Fit Center  126 is at  -2.697887 -2.131913 -0.893950
      ESP Fit Center  127 is at  -2.409611 -2.438896 -0.893950
      ESP Fit Center  128 is at  -2.054048 -2.664544 -0.893950
      ESP Fit Center  129 is at  -1.653539 -2.794677 -0.893950
      ESP Fit Center  130 is at  -1.233250 -2.821119 -0.893950
      ESP Fit Center  131 is at  -0.819590 -2.742209 -0.893950
      ESP Fit Center  132 is at  -0.438549 -2.562905 -0.893950
      ESP Fit Center  133 is at  -0.114071 -2.294473 -0.893950
      ESP Fit Center  134 is at  -2.961494 -1.144434 -1.328766
      ESP Fit Center  135 is at  -2.906200 -1.564434 -1.328766
      ESP Fit Center  136 is at  -2.744086 -1.955812 -1.328766
      ESP Fit Center  137 is at  -2.486200 -2.291895 -1.328766
      ESP Fit Center  138 is at  -2.150116 -2.549781 -1.328766
      ESP Fit Center  139 is at  -1.758738 -2.711895 -1.328766
      ESP Fit Center  140 is at  -1.338738 -2.767189 -1.328766
      ESP Fit Center  141 is at  -0.918738 -2.711895 -1.328766
      ESP Fit Center  142 is at  -0.527361 -2.549781 -1.328766
      ESP Fit Center  143 is at  -0.191277 -2.291895 -1.328766
      ESP Fit Center  144 is at  -2.649578 -0.513167 -1.733950
      ESP Fit Center  145 is at  -2.777411 -0.927589 -1.733950
      ESP Fit Center  146 is at  -2.777411 -1.361279 -1.733950
      ESP Fit Center  147 is at  -2.649578 -1.775701 -1.733950
      ESP Fit Center  148 is at  -2.405272 -2.134033 -1.733950
      ESP Fit Center  149 is at  -2.066200 -2.404434 -1.733950
      ESP Fit Center  150 is at  -1.662489 -2.562879 -1.733950
      ESP Fit Center  151 is at  -1.230012 -2.595289 -1.733950
      ESP Fit Center  152 is at  -0.807195 -2.498783 -1.733950
      ESP Fit Center  153 is at  -0.431609 -2.281938 -1.733950
      ESP Fit Center  154 is at  -0.136625 -1.964021 -1.733950
      ESP Fit Center  155 is at  -0.150799 -1.144434 -2.081890
      ESP Fit Center  156 is at  -0.231018 -0.715301 -2.081890
      ESP Fit Center  157 is at  -1.229129  0.038438 -2.081890
      ESP Fit Center  158 is at  -1.663833 -0.001844 -2.081890
      ESP Fit Center  159 is at  -2.054632 -0.196438 -2.081890
      ESP Fit Center  160 is at  -2.348745 -0.519065 -2.081890
      ESP Fit Center  161 is at  -2.506451 -0.926151 -2.081890
      ESP Fit Center  162 is at  -2.506451 -1.362717 -2.081890
      ESP Fit Center  163 is at  -2.348745 -1.769804 -2.081890
      ESP Fit Center  164 is at  -2.054632 -2.092430 -2.081890
      ESP Fit Center  165 is at  -1.663833 -2.287025 -2.081890
      ESP Fit Center  166 is at  -1.229129 -2.327306 -2.081890
      ESP Fit Center  167 is at  -0.809228 -2.207834 -2.081890
      ESP Fit Center  168 is at  -0.460841 -1.944744 -2.081890
      ESP Fit Center  169 is at  -0.231018 -1.573567 -2.081890
      ESP Fit Center  170 is at  -0.498738 -1.144434 -2.348873
      ESP Fit Center  171 is at  -0.611277 -0.724434 -2.348873
      ESP Fit Center  172 is at  -0.918738 -0.416973 -2.348873
      ESP Fit Center  173 is at  -1.338738 -0.304434 -2.348873
      ESP Fit Center  174 is at  -1.758738 -0.416973 -2.348873
      ESP Fit Center  175 is at  -2.066200 -0.724434 -2.348873
      ESP Fit Center  176 is at  -2.178738 -1.144434 -2.348873
      ESP Fit Center  177 is at  -2.066200 -1.564434 -2.348873
      ESP Fit Center  178 is at  -1.758738 -1.871895 -2.348873
      ESP Fit Center  179 is at  -1.338738 -1.984434 -2.348873
      ESP Fit Center  180 is at  -0.918738 -1.871895 -2.348873
      ESP Fit Center  181 is at  -0.611277 -1.564434 -2.348873
      ESP Fit Center  182 is at  -0.903922 -1.144434 -2.516706
      ESP Fit Center  183 is at  -1.121330 -0.767872 -2.516706
      ESP Fit Center  184 is at  -1.556146 -0.767872 -2.516706
      ESP Fit Center  185 is at  -1.773554 -1.144434 -2.516706
      ESP Fit Center  186 is at  -1.556146 -1.520996 -2.516706
      ESP Fit Center  187 is at  -1.121330 -1.520996 -2.516706
      ESP Fit Center  188 is at  -1.338738 -1.144434 -2.573950
      ESP Fit Center  189 is at  -1.338816 -1.144425  2.573843
      ESP Fit Center  190 is at  -0.904000 -1.144425  2.516598
      ESP Fit Center  191 is at  -1.121408 -0.767864  2.516598
      ESP Fit Center  192 is at  -1.556224 -0.767864  2.516598
      ESP Fit Center  193 is at  -1.773632 -1.144425  2.516598
      ESP Fit Center  194 is at  -1.556224 -1.520987  2.516598
      ESP Fit Center  195 is at  -1.121408 -1.520987  2.516598
      ESP Fit Center  196 is at  -0.498816 -1.144425  2.348765
      ESP Fit Center  197 is at  -0.611354 -0.724425  2.348765
      ESP Fit Center  198 is at  -0.918816 -0.416964  2.348765
      ESP Fit Center  199 is at  -1.338816 -0.304425  2.348765
      ESP Fit Center  200 is at  -1.758816 -0.416964  2.348765
      ESP Fit Center  201 is at  -2.066277 -0.724425  2.348765
      ESP Fit Center  202 is at  -2.178816 -1.144425  2.348765
      ESP Fit Center  203 is at  -2.066277 -1.564425  2.348765
      ESP Fit Center  204 is at  -1.758816 -1.871887  2.348765
      ESP Fit Center  205 is at  -1.338816 -1.984425  2.348765
      ESP Fit Center  206 is at  -0.918816 -1.871887  2.348765
      ESP Fit Center  207 is at  -0.611354 -1.564425  2.348765
      ESP Fit Center  208 is at  -0.150876 -1.144425  2.081782
      ESP Fit Center  209 is at  -0.231095 -0.715292  2.081782
      ESP Fit Center  210 is at  -1.229206  0.038446  2.081782
      ESP Fit Center  211 is at  -1.663911 -0.001835  2.081782
      ESP Fit Center  212 is at  -2.054709 -0.196429  2.081782
      ESP Fit Center  213 is at  -2.348822 -0.519056  2.081782
      ESP Fit Center  214 is at  -2.506528 -0.926142  2.081782
      ESP Fit Center  215 is at  -2.506528 -1.362709  2.081782
      ESP Fit Center  216 is at  -2.348822 -1.769795  2.081782
      ESP Fit Center  217 is at  -2.054709 -2.092422  2.081782
      ESP Fit Center  218 is at  -1.663911 -2.287016  2.081782
      ESP Fit Center  219 is at  -1.229206 -2.327297  2.081782
      ESP Fit Center  220 is at  -0.809305 -2.207825  2.081782
      ESP Fit Center  221 is at  -0.460918 -1.944735  2.081782
      ESP Fit Center  222 is at  -0.231095 -1.573559  2.081782
      ESP Fit Center  223 is at  -2.649656 -0.513158  1.733843
      ESP Fit Center  224 is at  -2.777488 -0.927580  1.733843
      ESP Fit Center  225 is at  -2.777488 -1.361270  1.733843
      ESP Fit Center  226 is at  -2.649656 -1.775693  1.733843
      ESP Fit Center  227 is at  -2.405349 -2.134024  1.733843
      ESP Fit Center  228 is at  -2.066277 -2.404425  1.733843
      ESP Fit Center  229 is at  -1.662566 -2.562870  1.733843
      ESP Fit Center  230 is at  -1.230089 -2.595280  1.733843
      ESP Fit Center  231 is at  -0.807273 -2.498775  1.733843
      ESP Fit Center  232 is at  -0.431686 -2.281930  1.733843
      ESP Fit Center  233 is at  -0.136702 -1.964013  1.733843
      ESP Fit Center  234 is at  -2.961571 -1.144425  1.328659
      ESP Fit Center  235 is at  -2.906277 -1.564425  1.328659
      ESP Fit Center  236 is at  -2.744163 -1.955803  1.328659
      ESP Fit Center  237 is at  -2.486277 -2.291887  1.328659
      ESP Fit Center  238 is at  -2.150193 -2.549773  1.328659
      ESP Fit Center  239 is at  -1.758816 -2.711887  1.328659
      ESP Fit Center  240 is at  -1.338816 -2.767181  1.328659
      ESP Fit Center  241 is at  -0.918816 -2.711887  1.328659
      ESP Fit Center  242 is at  -0.527438 -2.549773  1.328659
      ESP Fit Center  243 is at  -0.191354 -2.291887  1.328659
      ESP Fit Center  244 is at  -2.900840 -1.762875  0.893843
      ESP Fit Center  245 is at  -2.697964 -2.131905  0.893843
      ESP Fit Center  246 is at  -2.409688 -2.438888  0.893843
      ESP Fit Center  247 is at  -2.054125 -2.664535  0.893843
      ESP Fit Center  248 is at  -1.653616 -2.794668  0.893843
      ESP Fit Center  249 is at  -1.233327 -2.821110  0.893843
      ESP Fit Center  250 is at  -0.819667 -2.742200  0.893843
      ESP Fit Center  251 is at  -0.438627 -2.562896  0.893843
      ESP Fit Center  252 is at  -0.114148 -2.294465  0.893843
      ESP Fit Center  253 is at  -2.486277 -2.291887  0.459027
      ESP Fit Center  254 is at  -2.150193 -2.549773  0.459027
      ESP Fit Center  255 is at  -1.758816 -2.711887  0.459027
      ESP Fit Center  256 is at  -1.338816 -2.767181  0.459027
      ESP Fit Center  257 is at  -0.918816 -2.711887  0.459027
      ESP Fit Center  258 is at  -0.527438 -2.549773  0.459027
      ESP Fit Center  259 is at  -0.191354 -2.291887  0.459027
      ESP Fit Center  260 is at   0.000000  0.666317  2.449994
      ESP Fit Center  261 is at   0.425438  0.666317  2.412773
      ESP Fit Center  262 is at   0.212719  1.034757  2.412773
      ESP Fit Center  263 is at  -0.212719  1.034757  2.412773
      ESP Fit Center  264 is at  -0.425438  0.666317  2.412773
      ESP Fit Center  265 is at  -0.212719  0.297877  2.412773
      ESP Fit Center  266 is at   0.212719  0.297877  2.412773
      ESP Fit Center  267 is at   0.837949  0.666317  2.302241
      ESP Fit Center  268 is at   0.725685  1.085291  2.302241
      ESP Fit Center  269 is at   0.418975  1.392002  2.302241
      ESP Fit Center  270 is at   0.000000  1.504266  2.302241
      ESP Fit Center  271 is at  -0.418975  1.392002  2.302241
      ESP Fit Center  272 is at  -0.725685  1.085291  2.302241
      ESP Fit Center  273 is at  -0.837949  0.666317  2.302241
      ESP Fit Center  274 is at  -0.725685  0.247342  2.302241
      ESP Fit Center  275 is at  -0.418975 -0.059369  2.302241
      ESP Fit Center  276 is at  -0.000000 -0.171633  2.302241
      ESP Fit Center  277 is at   0.418975 -0.059369  2.302241
      ESP Fit Center  278 is at   0.725685  0.247342  2.302241
      ESP Fit Center  279 is at   1.225000  0.666317  2.121756
      ESP Fit Center  280 is at   1.151123  1.085291  2.121756
      ESP Fit Center  281 is at   0.938404  1.453732  2.121756
      ESP Fit Center  282 is at   0.612500  1.727198  2.121756
      ESP Fit Center  283 is at   0.212719  1.872706  2.121756
      ESP Fit Center  284 is at  -0.212719  1.872706  2.121756
      ESP Fit Center  285 is at  -0.612500  1.727198  2.121756
      ESP Fit Center  286 is at  -0.938404  1.453732  2.121756
      ESP Fit Center  287 is at  -1.151123  1.085291  2.121756
      ESP Fit Center  288 is at  -1.225000  0.666317  2.121756
      ESP Fit Center  289 is at  -1.151123  0.247342  2.121756
      ESP Fit Center  290 is at  -0.212719 -0.540073  2.121756
      ESP Fit Center  291 is at   0.212719 -0.540073  2.121756
      ESP Fit Center  292 is at   1.151123  0.247342  2.121756
      ESP Fit Center  293 is at   1.574830  0.666317  1.876803
      ESP Fit Center  294 is at   1.516431  1.091201  1.876803
      ESP Fit Center  295 is at   1.345565  1.484573  1.876803
      ESP Fit Center  296 is at   1.074905  1.817259  1.876803
      ESP Fit Center  297 is at   0.724524  2.064585  1.876803
      ESP Fit Center  298 is at   0.320409  2.208207  1.876803
      ESP Fit Center  299 is at  -0.107470  2.237475  1.876803
      ESP Fit Center  300 is at  -0.527378  2.150217  1.876803
      ESP Fit Center  301 is at  -0.908173  1.952905  1.876803
      ESP Fit Center  302 is at  -1.221613  1.660173  1.876803
      ESP Fit Center  303 is at  -1.444452  1.293731  1.876803
      ESP Fit Center  304 is at  -1.560162  0.880756  1.876803
      ESP Fit Center  305 is at  -1.560162  0.451878  1.876803
      ESP Fit Center  306 is at   1.829753  1.083946  1.574824
      ESP Fit Center  307 is at   1.690946  1.480634  1.574824
      ESP Fit Center  308 is at   1.467348  1.836488  1.574824
      ESP Fit Center  309 is at   1.170171  2.133665  1.574824
      ESP Fit Center  310 is at   0.814317  2.357263  1.574824
      ESP Fit Center  311 is at   0.417629  2.496070  1.574824
      ESP Fit Center  312 is at   0.000000  2.543126  1.574824
      ESP Fit Center  313 is at  -0.417629  2.496070  1.574824
      ESP Fit Center  314 is at  -0.814317  2.357263  1.574824
      ESP Fit Center  315 is at  -1.170171  2.133665  1.574824
      ESP Fit Center  316 is at  -1.467348  1.836488  1.574824
      ESP Fit Center  317 is at  -1.690946  1.480634  1.574824
      ESP Fit Center  318 is at  -1.829753  1.083946  1.574824
      ESP Fit Center  319 is at   1.960253  1.478280  1.224994
      ESP Fit Center  320 is at   1.764181  1.845105  1.224994
      ESP Fit Center  321 is at   1.500312  2.166629  1.224994
      ESP Fit Center  322 is at   1.178788  2.430498  1.224994
      ESP Fit Center  323 is at   0.811963  2.626569  1.224994
      ESP Fit Center  324 is at   0.413935  2.747310  1.224994
      ESP Fit Center  325 is at   0.000000  2.788079  1.224994
      ESP Fit Center  326 is at  -0.413935  2.747310  1.224994
      ESP Fit Center  327 is at  -0.811963  2.626569  1.224994
      ESP Fit Center  328 is at  -1.178788  2.430498  1.224994
      ESP Fit Center  329 is at  -1.500312  2.166629  1.224994
      ESP Fit Center  330 is at  -1.764181  1.845105  1.224994
      ESP Fit Center  331 is at  -1.960253  1.478280  1.224994
      ESP Fit Center  332 is at   1.957410  1.878294  0.837944
      ESP Fit Center  333 is at   1.701381  2.217331  0.837944
      ESP Fit Center  334 is at   1.387414  2.503549  0.837944
      ESP Fit Center  335 is at   1.026200  2.727204  0.837944
      ESP Fit Center  336 is at   0.630040  2.880677  0.837944
      ESP Fit Center  337 is at   0.212425  2.958743  0.837944
      ESP Fit Center  338 is at  -0.212425  2.958743  0.837944
      ESP Fit Center  339 is at  -0.630040  2.880677  0.837944
      ESP Fit Center  340 is at  -1.026200  2.727204  0.837944
      ESP Fit Center  341 is at  -1.387414  2.503549  0.837944
      ESP Fit Center  342 is at  -1.701381  2.217331  0.837944
      ESP Fit Center  343 is at  -1.957410  1.878294  0.837944
      ESP Fit Center  344 is at   2.089528  1.872706  0.425432
      ESP Fit Center  345 is at   1.848296  2.217221  0.425432
      ESP Fit Center  346 is at   1.550904  2.514613  0.425432
      ESP Fit Center  347 is at   1.206389  2.755845  0.425432
      ESP Fit Center  348 is at   0.825219  2.933587  0.425432
      ESP Fit Center  349 is at   0.418975  3.042440  0.425432
      ESP Fit Center  350 is at   0.000000  3.079096  0.425432
      ESP Fit Center  351 is at  -0.418975  3.042440  0.425432
      ESP Fit Center  352 is at  -0.825219  2.933587  0.425432
      ESP Fit Center  353 is at  -1.206389  2.755845  0.425432
      ESP Fit Center  354 is at  -1.550904  2.514613  0.425432
      ESP Fit Center  355 is at  -1.848296  2.217221  0.425432
      ESP Fit Center  356 is at  -2.089528  1.872706  0.425432
      ESP Fit Center  357 is at   2.138885  1.861169 -0.000006
      ESP Fit Center  358 is at   1.906188  2.205456 -0.000006
      ESP Fit Center  359 is at   1.618653  2.505464 -0.000006
      ESP Fit Center  360 is at   1.284553  2.752563 -0.000006
      ESP Fit Center  361 is at   0.913498  2.939645 -0.000006
      ESP Fit Center  362 is at   0.516164  3.061327 -0.000006
      ESP Fit Center  363 is at   0.103981  3.114109 -0.000006
      ESP Fit Center  364 is at  -0.311194  3.096473 -0.000006
      ESP Fit Center  365 is at  -0.717416  3.008925 -0.000006
      ESP Fit Center  366 is at  -1.102999  2.853985 -0.000006
      ESP Fit Center  367 is at  -1.456851  2.636110 -0.000006
      ESP Fit Center  368 is at  -1.768792  2.361567 -0.000006
      ESP Fit Center  369 is at  -2.029849  2.038255 -0.000006
      ESP Fit Center  370 is at   2.089528  1.872706 -0.425444
      ESP Fit Center  371 is at   1.848296  2.217221 -0.425444
      ESP Fit Center  372 is at   1.550904  2.514613 -0.425444
      ESP Fit Center  373 is at   1.206389  2.755845 -0.425444
      ESP Fit Center  374 is at   0.825219  2.933587 -0.425444
      ESP Fit Center  375 is at   0.418975  3.042440 -0.425444
      ESP Fit Center  376 is at   0.000000  3.079096 -0.425444
      ESP Fit Center  377 is at  -0.418975  3.042440 -0.425444
      ESP Fit Center  378 is at  -0.825219  2.933587 -0.425444
      ESP Fit Center  379 is at  -1.206389  2.755845 -0.425444
      ESP Fit Center  380 is at  -1.550904  2.514613 -0.425444
      ESP Fit Center  381 is at  -1.848296  2.217221 -0.425444
      ESP Fit Center  382 is at  -2.089528  1.872706 -0.425444
      ESP Fit Center  383 is at   1.957410  1.878294 -0.837955
      ESP Fit Center  384 is at   1.701381  2.217331 -0.837955
      ESP Fit Center  385 is at   1.387414  2.503549 -0.837955
      ESP Fit Center  386 is at   1.026200  2.727204 -0.837955
      ESP Fit Center  387 is at   0.630040  2.880677 -0.837955
      ESP Fit Center  388 is at   0.212425  2.958743 -0.837955
      ESP Fit Center  389 is at  -0.212425  2.958743 -0.837955
      ESP Fit Center  390 is at  -0.630040  2.880677 -0.837955
      ESP Fit Center  391 is at  -1.026200  2.727204 -0.837955
      ESP Fit Center  392 is at  -1.387414  2.503549 -0.837955
      ESP Fit Center  393 is at  -1.701381  2.217331 -0.837955
      ESP Fit Center  394 is at  -1.957410  1.878294 -0.837955
      ESP Fit Center  395 is at   1.960253  1.478280 -1.225006
      ESP Fit Center  396 is at   1.764181  1.845105 -1.225006
      ESP Fit Center  397 is at   1.500312  2.166629 -1.225006
      ESP Fit Center  398 is at   1.178788  2.430498 -1.225006
      ESP Fit Center  399 is at   0.811963  2.626569 -1.225006
      ESP Fit Center  400 is at   0.413935  2.747310 -1.225006
      ESP Fit Center  401 is at   0.000000  2.788079 -1.225006
      ESP Fit Center  402 is at  -0.413935  2.747310 -1.225006
      ESP Fit Center  403 is at  -0.811963  2.626569 -1.225006
      ESP Fit Center  404 is at  -1.178788  2.430498 -1.225006
      ESP Fit Center  405 is at  -1.500312  2.166629 -1.225006
      ESP Fit Center  406 is at  -1.764181  1.845105 -1.225006
      ESP Fit Center  407 is at  -1.960253  1.478280 -1.225006
      ESP Fit Center  408 is at   1.829753  1.083946 -1.574835
      ESP Fit Center  409 is at   1.690946  1.480634 -1.574835
      ESP Fit Center  410 is at   1.467348  1.836488 -1.574835
      ESP Fit Center  411 is at   1.170171  2.133665 -1.574835
      ESP Fit Center  412 is at   0.814317  2.357263 -1.574835
      ESP Fit Center  413 is at   0.417629  2.496070 -1.574835
      ESP Fit Center  414 is at   0.000000  2.543126 -1.574835
      ESP Fit Center  415 is at  -0.417629  2.496070 -1.574835
      ESP Fit Center  416 is at  -0.814317  2.357263 -1.574835
      ESP Fit Center  417 is at  -1.170171  2.133665 -1.574835
      ESP Fit Center  418 is at  -1.467348  1.836488 -1.574835
      ESP Fit Center  419 is at  -1.690946  1.480634 -1.574835
      ESP Fit Center  420 is at  -1.829753  1.083946 -1.574835
      ESP Fit Center  421 is at   1.574830  0.666317 -1.876815
      ESP Fit Center  422 is at   1.516431  1.091201 -1.876815
      ESP Fit Center  423 is at   1.345565  1.484573 -1.876815
      ESP Fit Center  424 is at   1.074905  1.817259 -1.876815
      ESP Fit Center  425 is at   0.724524  2.064585 -1.876815
      ESP Fit Center  426 is at   0.320409  2.208207 -1.876815
      ESP Fit Center  427 is at  -0.107470  2.237475 -1.876815
      ESP Fit Center  428 is at  -0.527378  2.150217 -1.876815
      ESP Fit Center  429 is at  -0.908173  1.952905 -1.876815
      ESP Fit Center  430 is at  -1.221613  1.660173 -1.876815
      ESP Fit Center  431 is at  -1.444452  1.293731 -1.876815
      ESP Fit Center  432 is at  -1.560162  0.880756 -1.876815
      ESP Fit Center  433 is at  -1.560162  0.451878 -1.876815
      ESP Fit Center  434 is at   1.225000  0.666317 -2.121768
      ESP Fit Center  435 is at   1.151123  1.085291 -2.121768
      ESP Fit Center  436 is at   0.938404  1.453732 -2.121768
      ESP Fit Center  437 is at   0.612500  1.727198 -2.121768
      ESP Fit Center  438 is at   0.212719  1.872706 -2.121768
      ESP Fit Center  439 is at  -0.212719  1.872706 -2.121768
      ESP Fit Center  440 is at  -0.612500  1.727198 -2.121768
      ESP Fit Center  441 is at  -0.938404  1.453732 -2.121768
      ESP Fit Center  442 is at  -1.151123  1.085291 -2.121768
      ESP Fit Center  443 is at  -1.225000  0.666317 -2.121768
      ESP Fit Center  444 is at  -1.151123  0.247342 -2.121768
      ESP Fit Center  445 is at  -0.212719 -0.540073 -2.121768
      ESP Fit Center  446 is at   0.212719 -0.540073 -2.121768
      ESP Fit Center  447 is at   1.151123  0.247342 -2.121768
      ESP Fit Center  448 is at   0.837949  0.666317 -2.302253
      ESP Fit Center  449 is at   0.725685  1.085291 -2.302253
      ESP Fit Center  450 is at   0.418975  1.392002 -2.302253
      ESP Fit Center  451 is at   0.000000  1.504266 -2.302253
      ESP Fit Center  452 is at  -0.418975  1.392002 -2.302253
      ESP Fit Center  453 is at  -0.725685  1.085291 -2.302253
      ESP Fit Center  454 is at  -0.837949  0.666317 -2.302253
      ESP Fit Center  455 is at  -0.725685  0.247342 -2.302253
      ESP Fit Center  456 is at  -0.418975 -0.059369 -2.302253
      ESP Fit Center  457 is at  -0.000000 -0.171633 -2.302253
      ESP Fit Center  458 is at   0.418975 -0.059369 -2.302253
      ESP Fit Center  459 is at   0.725685  0.247342 -2.302253
      ESP Fit Center  460 is at   0.425438  0.666317 -2.412785
      ESP Fit Center  461 is at   0.212719  1.034757 -2.412785
      ESP Fit Center  462 is at  -0.212719  1.034757 -2.412785
      ESP Fit Center  463 is at  -0.425438  0.666317 -2.412785
      ESP Fit Center  464 is at  -0.212719  0.297877 -2.412785
      ESP Fit Center  465 is at   0.212719  0.297877 -2.412785
      ESP Fit Center  466 is at   0.000000  0.666317 -2.450006
      ESP Fit Center  467 is at   1.763614  0.180179  1.940214
      ESP Fit Center  468 is at   2.449710 -0.094330  1.746153
      ESP Fit Center  469 is at   2.223997  0.270209  1.746153
      ESP Fit Center  470 is at   1.881839  0.528595  1.746153
      ESP Fit Center  471 is at   2.846721 -0.515790  1.484991
      ESP Fit Center  472 is at   1.978657  0.834945  1.484991
      ESP Fit Center  473 is at   3.057145 -0.933655  1.166764
      ESP Fit Center  474 is at   3.122627 -1.330436  0.803702
      ESP Fit Center  475 is at   2.780827 -2.008608  0.409757
      ESP Fit Center  476 is at   3.052282 -1.692402  0.409757
      ESP Fit Center  477 is at   3.254527 -1.328024  0.409757
      ESP Fit Center  478 is at   0.195099 -2.261876  0.000067
      ESP Fit Center  479 is at   0.558162 -2.455937  0.000067
      ESP Fit Center  480 is at   0.952107 -2.575439  0.000067
      ESP Fit Center  481 is at   1.361797 -2.615790  0.000067
      ESP Fit Center  482 is at   1.771487 -2.575439  0.000067
      ESP Fit Center  483 is at   2.165432 -2.455937  0.000067
      ESP Fit Center  484 is at   2.528494 -2.261876  0.000067
      ESP Fit Center  485 is at   2.846721 -2.000714  0.000067
      ESP Fit Center  486 is at   3.107883 -1.682487  0.000067
      ESP Fit Center  487 is at   3.301944 -1.319425  0.000067
      ESP Fit Center  488 is at   2.780827 -2.008608 -0.409623
      ESP Fit Center  489 is at   3.052282 -1.692402 -0.409623
      ESP Fit Center  490 is at   3.254527 -1.328024 -0.409623
      ESP Fit Center  491 is at   3.122627 -1.330436 -0.803568
      ESP Fit Center  492 is at   3.057145 -0.933655 -1.166631
      ESP Fit Center  493 is at   2.846721 -0.515790 -1.484857
      ESP Fit Center  494 is at   1.978657  0.834945 -1.484857
      ESP Fit Center  495 is at   2.449710 -0.094330 -1.746019
      ESP Fit Center  496 is at   2.223997  0.270209 -1.746019
      ESP Fit Center  497 is at   1.881839  0.528595 -1.746019
      ESP Fit Center  498 is at   1.763614  0.180179 -1.940080
      ESP Fit Center  499 is at   2.728631  0.053063  1.622864
      ESP Fit Center  500 is at   2.511223  0.429625  1.622864
      ESP Fit Center  501 is at   3.133815  0.053063  1.455032
      ESP Fit Center  502 is at   3.021277  0.473063  1.455032
      ESP Fit Center  503 is at   2.713815  0.780525  1.455032
      ESP Fit Center  504 is at   2.293815  0.893063  1.455032
      ESP Fit Center  505 is at   3.021277 -0.366937  1.455032
      ESP Fit Center  506 is at   3.481755  0.053063  1.188048
      ESP Fit Center  507 is at   3.401536  0.482196  1.188048
      ESP Fit Center  508 is at   3.171713  0.853373  1.188048
      ESP Fit Center  509 is at   2.823326  1.116463  1.188048
      ESP Fit Center  510 is at   2.403425  1.235935  1.188048
      ESP Fit Center  511 is at   3.171713 -0.747246  1.188048
      ESP Fit Center  512 is at   3.401536 -0.376070  1.188048
      ESP Fit Center  513 is at   3.748738  0.053063  0.840109
      ESP Fit Center  514 is at   3.684100  0.481909  0.840109
      ESP Fit Center  515 is at   3.495929  0.872650  0.840109
      ESP Fit Center  516 is at   3.200945  1.190568  0.840109
      ESP Fit Center  517 is at   2.825358  1.407413  0.840109
      ESP Fit Center  518 is at   2.402542  1.503918  0.840109
      ESP Fit Center  519 is at   3.200945 -1.084441  0.840109
      ESP Fit Center  520 is at   3.495929 -0.766524  0.840109
      ESP Fit Center  521 is at   3.684100 -0.375783  0.840109
      ESP Fit Center  522 is at   3.916571  0.053063  0.434925
      ESP Fit Center  523 is at   3.861277  0.473063  0.434925
      ESP Fit Center  524 is at   3.699163  0.864441  0.434925
      ESP Fit Center  525 is at   3.441277  1.200525  0.434925
      ESP Fit Center  526 is at   3.105193  1.458411  0.434925
      ESP Fit Center  527 is at   2.713815  1.620525  0.434925
      ESP Fit Center  528 is at   2.293815  1.675819  0.434925
      ESP Fit Center  529 is at   3.441277 -1.094398  0.434925
      ESP Fit Center  530 is at   3.699163 -0.758314  0.434925
      ESP Fit Center  531 is at   3.861277 -0.366937  0.434925
      ESP Fit Center  532 is at   3.973815  0.053063  0.000109
      ESP Fit Center  533 is at   3.921035  0.470862  0.000109
      ESP Fit Center  534 is at   3.766011  0.862409  0.000109
      ESP Fit Center  535 is at   3.518483  1.203102  0.000109
      ESP Fit Center  536 is at   3.194004  1.471534  0.000109
      ESP Fit Center  537 is at   2.812964  1.650838  0.000109
      ESP Fit Center  538 is at   2.399304  1.729748  0.000109
      ESP Fit Center  539 is at   3.518483 -1.096976  0.000109
      ESP Fit Center  540 is at   3.766011 -0.756283  0.000109
      ESP Fit Center  541 is at   3.921035 -0.364736  0.000109
      ESP Fit Center  542 is at   3.916571  0.053063 -0.434707
      ESP Fit Center  543 is at   3.861277  0.473063 -0.434707
      ESP Fit Center  544 is at   3.699163  0.864441 -0.434707
      ESP Fit Center  545 is at   3.441277  1.200525 -0.434707
      ESP Fit Center  546 is at   3.105193  1.458411 -0.434707
      ESP Fit Center  547 is at   2.713815  1.620525 -0.434707
      ESP Fit Center  548 is at   2.293815  1.675819 -0.434707
      ESP Fit Center  549 is at   3.441277 -1.094398 -0.434707
      ESP Fit Center  550 is at   3.699163 -0.758314 -0.434707
      ESP Fit Center  551 is at   3.861277 -0.366937 -0.434707
      ESP Fit Center  552 is at   3.748738  0.053063 -0.839891
      ESP Fit Center  553 is at   3.684100  0.481909 -0.839891
      ESP Fit Center  554 is at   3.495929  0.872650 -0.839891
      ESP Fit Center  555 is at   3.200945  1.190568 -0.839891
      ESP Fit Center  556 is at   2.825358  1.407413 -0.839891
      ESP Fit Center  557 is at   2.402542  1.503918 -0.839891
      ESP Fit Center  558 is at   3.200945 -1.084441 -0.839891
      ESP Fit Center  559 is at   3.495929 -0.766524 -0.839891
      ESP Fit Center  560 is at   3.684100 -0.375783 -0.839891
      ESP Fit Center  561 is at   3.481755  0.053063 -1.187830
      ESP Fit Center  562 is at   3.401536  0.482196 -1.187830
      ESP Fit Center  563 is at   3.171713  0.853373 -1.187830
      ESP Fit Center  564 is at   2.823326  1.116463 -1.187830
      ESP Fit Center  565 is at   2.403425  1.235935 -1.187830
      ESP Fit Center  566 is at   3.171713 -0.747246 -1.187830
      ESP Fit Center  567 is at   3.401536 -0.376070 -1.187830
      ESP Fit Center  568 is at   3.133815  0.053063 -1.454814
      ESP Fit Center  569 is at   3.021277  0.473063 -1.454814
      ESP Fit Center  570 is at   2.713815  0.780525 -1.454814
      ESP Fit Center  571 is at   2.293815  0.893063 -1.454814
      ESP Fit Center  572 is at   3.021277 -0.366937 -1.454814
      ESP Fit Center  573 is at   2.728631  0.053063 -1.622646
      ESP Fit Center  574 is at   2.511223  0.429625 -1.622646
      ESP Fit Center  575 is at   1.338734 -1.144425  2.573965
      ESP Fit Center  576 is at   1.773550 -1.144425  2.516721
      ESP Fit Center  577 is at   1.556142 -0.767864  2.516721
      ESP Fit Center  578 is at   1.121326 -0.767864  2.516721
      ESP Fit Center  579 is at   0.903918 -1.144425  2.516721
      ESP Fit Center  580 is at   1.121326 -1.520987  2.516721
      ESP Fit Center  581 is at   1.556142 -1.520987  2.516721
      ESP Fit Center  582 is at   2.178734 -1.144425  2.348888
      ESP Fit Center  583 is at   2.066195 -0.724425  2.348888
      ESP Fit Center  584 is at   1.758734 -0.416964  2.348888
      ESP Fit Center  585 is at   1.338734 -0.304425  2.348888
      ESP Fit Center  586 is at   0.918734 -0.416964  2.348888
      ESP Fit Center  587 is at   0.611272 -0.724425  2.348888
      ESP Fit Center  588 is at   0.498734 -1.144425  2.348888
      ESP Fit Center  589 is at   0.611272 -1.564425  2.348888
      ESP Fit Center  590 is at   0.918734 -1.871887  2.348888
      ESP Fit Center  591 is at   1.338734 -1.984425  2.348888
      ESP Fit Center  592 is at   1.758734 -1.871887  2.348888
      ESP Fit Center  593 is at   2.066195 -1.564425  2.348888
      ESP Fit Center  594 is at   2.526673 -1.144425  2.081905
      ESP Fit Center  595 is at   2.446454 -0.715292  2.081905
      ESP Fit Center  596 is at   2.216632 -0.344116  2.081905
      ESP Fit Center  597 is at   1.868244 -0.081026  2.081905
      ESP Fit Center  598 is at   1.448343  0.038447  2.081905
      ESP Fit Center  599 is at   0.171021 -0.926142  2.081905
      ESP Fit Center  600 is at   0.171021 -1.362709  2.081905
      ESP Fit Center  601 is at   0.328727 -1.769795  2.081905
      ESP Fit Center  602 is at   0.622840 -2.092421  2.081905
      ESP Fit Center  603 is at   1.013639 -2.287016  2.081905
      ESP Fit Center  604 is at   1.448343 -2.327297  2.081905
      ESP Fit Center  605 is at   1.868244 -2.207825  2.081905
      ESP Fit Center  606 is at   2.216632 -1.944735  2.081905
      ESP Fit Center  607 is at   2.446454 -1.573558  2.081905
      ESP Fit Center  608 is at   2.793656 -1.144425  1.733965
      ESP Fit Center  609 is at   2.729018 -0.715579  1.733965
      ESP Fit Center  610 is at   2.540847 -0.324838  1.733965
      ESP Fit Center  611 is at   0.027894 -1.775693  1.733965
      ESP Fit Center  612 is at   0.272200 -2.134024  1.733965
      ESP Fit Center  613 is at   0.611272 -2.404425  1.733965
      ESP Fit Center  614 is at   1.014983 -2.562870  1.733965
      ESP Fit Center  615 is at   1.447460 -2.595280  1.733965
      ESP Fit Center  616 is at   1.870277 -2.498775  1.733965
      ESP Fit Center  617 is at   2.245863 -2.281930  1.733965
      ESP Fit Center  618 is at   2.540847 -1.964012  1.733965
      ESP Fit Center  619 is at   2.729018 -1.573271  1.733965
      ESP Fit Center  620 is at   2.961489 -1.144425  1.328781
      ESP Fit Center  621 is at   0.191272 -2.291887  1.328781
      ESP Fit Center  622 is at   0.527356 -2.549773  1.328781
      ESP Fit Center  623 is at   0.918734 -2.711887  1.328781
      ESP Fit Center  624 is at   1.338734 -2.767181  1.328781
      ESP Fit Center  625 is at   1.758734 -2.711887  1.328781
      ESP Fit Center  626 is at   2.150111 -2.549773  1.328781
      ESP Fit Center  627 is at   2.486195 -2.291887  1.328781
      ESP Fit Center  628 is at   2.744081 -1.955803  1.328781
      ESP Fit Center  629 is at   2.906195 -1.564425  1.328781
      ESP Fit Center  630 is at   0.267861 -2.438888  0.893965
      ESP Fit Center  631 is at   0.623425 -2.664535  0.893965
      ESP Fit Center  632 is at   1.023933 -2.794668  0.893965
      ESP Fit Center  633 is at   1.444222 -2.821110  0.893965
      ESP Fit Center  634 is at   1.857882 -2.742200  0.893965
      ESP Fit Center  635 is at   2.238923 -2.562896  0.893965
      ESP Fit Center  636 is at   2.563401 -2.294464  0.893965
      ESP Fit Center  637 is at   2.810929 -1.953771  0.893965
      ESP Fit Center  638 is at   2.965953 -1.562224  0.893965
      ESP Fit Center  639 is at   0.191272 -2.291887  0.459149
      ESP Fit Center  640 is at   0.527356 -2.549773  0.459149
      ESP Fit Center  641 is at   0.918734 -2.711887  0.459149
      ESP Fit Center  642 is at   1.338734 -2.767181  0.459149
      ESP Fit Center  643 is at   1.758734 -2.711887  0.459149
      ESP Fit Center  644 is at   2.150111 -2.549773  0.459149
      ESP Fit Center  645 is at   2.486195 -2.291887  0.459149
      ESP Fit Center  646 is at   0.191359 -2.291896 -0.459011
      ESP Fit Center  647 is at   0.527442 -2.549782 -0.459011
      ESP Fit Center  648 is at   0.918820 -2.711896 -0.459011
      ESP Fit Center  649 is at   1.338820 -2.767190 -0.459011
      ESP Fit Center  650 is at   1.758820 -2.711896 -0.459011
      ESP Fit Center  651 is at   2.150198 -2.549782 -0.459011
      ESP Fit Center  652 is at   2.486281 -2.291896 -0.459011
      ESP Fit Center  653 is at   0.267948 -2.438897 -0.893827
      ESP Fit Center  654 is at   0.623511 -2.664544 -0.893827
      ESP Fit Center  655 is at   1.024020 -2.794677 -0.893827
      ESP Fit Center  656 is at   1.444308 -2.821119 -0.893827
      ESP Fit Center  657 is at   1.857969 -2.742209 -0.893827
      ESP Fit Center  658 is at   2.239009 -2.562905 -0.893827
      ESP Fit Center  659 is at   2.563487 -2.294473 -0.893827
      ESP Fit Center  660 is at   2.811015 -1.953780 -0.893827
      ESP Fit Center  661 is at   2.966040 -1.562233 -0.893827
      ESP Fit Center  662 is at   2.961576 -1.144434 -1.328643
      ESP Fit Center  663 is at   0.191359 -2.291896 -1.328643
      ESP Fit Center  664 is at   0.527442 -2.549782 -1.328643
      ESP Fit Center  665 is at   0.918820 -2.711896 -1.328643
      ESP Fit Center  666 is at   1.338820 -2.767190 -1.328643
      ESP Fit Center  667 is at   1.758820 -2.711896 -1.328643
      ESP Fit Center  668 is at   2.150198 -2.549782 -1.328643
      ESP Fit Center  669 is at   2.486281 -2.291896 -1.328643
      ESP Fit Center  670 is at   2.744168 -1.955812 -1.328643
      ESP Fit Center  671 is at   2.906281 -1.564434 -1.328643
      ESP Fit Center  672 is at   2.793743 -1.144434 -1.733827
      ESP Fit Center  673 is at   2.729105 -0.715588 -1.733827
      ESP Fit Center  674 is at   2.540934 -0.324847 -1.733827
      ESP Fit Center  675 is at   0.027980 -1.775702 -1.733827
      ESP Fit Center  676 is at   0.272286 -2.134033 -1.733827
      ESP Fit Center  677 is at   0.611359 -2.404434 -1.733827
      ESP Fit Center  678 is at   1.015069 -2.562879 -1.733827
      ESP Fit Center  679 is at   1.447547 -2.595289 -1.733827
      ESP Fit Center  680 is at   1.870363 -2.498784 -1.733827
      ESP Fit Center  681 is at   2.245950 -2.281939 -1.733827
      ESP Fit Center  682 is at   2.540934 -1.964021 -1.733827
      ESP Fit Center  683 is at   2.729105 -1.573280 -1.733827
      ESP Fit Center  684 is at   2.526760 -1.144434 -2.081767
      ESP Fit Center  685 is at   2.446541 -0.715301 -2.081767
      ESP Fit Center  686 is at   2.216718 -0.344125 -2.081767
      ESP Fit Center  687 is at   1.868330 -0.081035 -2.081767
      ESP Fit Center  688 is at   1.448429  0.038438 -2.081767
      ESP Fit Center  689 is at   0.171108 -0.926151 -2.081767
      ESP Fit Center  690 is at   0.171108 -1.362718 -2.081767
      ESP Fit Center  691 is at   0.328814 -1.769804 -2.081767
      ESP Fit Center  692 is at   0.622927 -2.092430 -2.081767
      ESP Fit Center  693 is at   1.013725 -2.287025 -2.081767
      ESP Fit Center  694 is at   1.448429 -2.327306 -2.081767
      ESP Fit Center  695 is at   1.868330 -2.207834 -2.081767
      ESP Fit Center  696 is at   2.216718 -1.944744 -2.081767
      ESP Fit Center  697 is at   2.446541 -1.573567 -2.081767
      ESP Fit Center  698 is at   2.178820 -1.144434 -2.348750
      ESP Fit Center  699 is at   2.066281 -0.724434 -2.348750
      ESP Fit Center  700 is at   1.758820 -0.416973 -2.348750
      ESP Fit Center  701 is at   1.338820 -0.304434 -2.348750
      ESP Fit Center  702 is at   0.918820 -0.416973 -2.348750
      ESP Fit Center  703 is at   0.611359 -0.724434 -2.348750
      ESP Fit Center  704 is at   0.498820 -1.144434 -2.348750
      ESP Fit Center  705 is at   0.611359 -1.564434 -2.348750
      ESP Fit Center  706 is at   0.918820 -1.871896 -2.348750
      ESP Fit Center  707 is at   1.338820 -1.984434 -2.348750
      ESP Fit Center  708 is at   1.758820 -1.871896 -2.348750
      ESP Fit Center  709 is at   2.066281 -1.564434 -2.348750
      ESP Fit Center  710 is at   1.773636 -1.144434 -2.516583
      ESP Fit Center  711 is at   1.556228 -0.767873 -2.516583
      ESP Fit Center  712 is at   1.121412 -0.767873 -2.516583
      ESP Fit Center  713 is at   0.904004 -1.144434 -2.516583
      ESP Fit Center  714 is at   1.121412 -1.520996 -2.516583
      ESP Fit Center  715 is at   1.556228 -1.520996 -2.516583
      ESP Fit Center  716 is at   1.338820 -1.144434 -2.573827
      ESP Fit Center  717 is at  -1.772221  0.195086  2.255204
      ESP Fit Center  718 is at  -1.961797  0.523441  2.078403
      ESP Fit Center  719 is at  -2.281050  0.255555  2.078403
      ESP Fit Center  720 is at  -2.489428 -0.105365  2.078403
      ESP Fit Center  721 is at  -2.251436  0.744542  1.838449
      ESP Fit Center  722 is at  -2.890118 -0.305727  1.838449
      ESP Fit Center  723 is at  -3.187872 -0.729227  1.542632
      ESP Fit Center  724 is at  -3.344938 -1.138004  1.199942
      ESP Fit Center  725 is at  -3.366354 -1.549211  0.820791
      ESP Fit Center  726 is at  -3.134553 -1.909900  0.820791
      ESP Fit Center  727 is at  -3.491272 -1.541291  0.416698
      ESP Fit Center  728 is at  -3.273940 -1.905043  0.416698
      ESP Fit Center  729 is at  -2.995150 -2.224143  0.416698
      ESP Fit Center  730 is at  -2.663863 -2.488336  0.416698
      ESP Fit Center  731 is at  -3.440258 -1.715790 -0.000058
      ESP Fit Center  732 is at  -3.200304 -2.058480 -0.000058
      ESP Fit Center  733 is at  -2.904487 -2.354296 -0.000058
      ESP Fit Center  734 is at  -2.561797 -2.594251 -0.000058
      ESP Fit Center  735 is at  -2.182645 -2.771052 -0.000058
      ESP Fit Center  736 is at  -1.778552 -2.879328 -0.000058
      ESP Fit Center  737 is at  -1.361797 -2.915790 -0.000058
      ESP Fit Center  738 is at  -0.945041 -2.879328 -0.000058
      ESP Fit Center  739 is at  -0.540949 -2.771052 -0.000058
      ESP Fit Center  740 is at  -0.161797 -2.594251 -0.000058
      ESP Fit Center  741 is at  -3.491272 -1.541291 -0.416813
      ESP Fit Center  742 is at  -3.273940 -1.905043 -0.416813
      ESP Fit Center  743 is at  -2.995150 -2.224143 -0.416813
      ESP Fit Center  744 is at  -2.663863 -2.488336 -0.416813
      ESP Fit Center  745 is at  -3.366354 -1.549211 -0.820906
      ESP Fit Center  746 is at  -3.134553 -1.909900 -0.820906
      ESP Fit Center  747 is at  -3.344938 -1.138004 -1.200058
      ESP Fit Center  748 is at  -3.187872 -0.729227 -1.542748
      ESP Fit Center  749 is at  -2.251436  0.744542 -1.838564
      ESP Fit Center  750 is at  -2.890118 -0.305727 -1.838564
      ESP Fit Center  751 is at  -1.961797  0.523441 -2.078519
      ESP Fit Center  752 is at  -2.281050  0.255555 -2.078519
      ESP Fit Center  753 is at  -2.489428 -0.105365 -2.078519
      ESP Fit Center  754 is at  -1.772221  0.195086 -2.255320
      ESP Fit Center  755 is at  -2.293815  0.886120  1.729759
      ESP Fit Center  756 is at  -2.710344  0.774512  1.729759
      ESP Fit Center  757 is at  -3.015264  0.469592  1.729759
      ESP Fit Center  758 is at  -3.126872  0.053063  1.729759
      ESP Fit Center  759 is at  -2.501690  1.231977  1.501016
      ESP Fit Center  760 is at  -2.892366  1.089783  1.501016
      ESP Fit Center  761 is at  -3.210848  0.822545  1.501016
      ESP Fit Center  762 is at  -3.418722  0.462496  1.501016
      ESP Fit Center  763 is at  -3.490916  0.053063  1.501016
      ESP Fit Center  764 is at  -3.418722 -0.356369  1.501016
      ESP Fit Center  765 is at  -2.507447  1.538900  1.197000
      ESP Fit Center  766 is at  -2.917402  1.418527  1.197000
      ESP Fit Center  767 is at  -3.276838  1.187531  1.197000
      ESP Fit Center  768 is at  -3.556635  0.864628  1.197000
      ESP Fit Center  769 is at  -3.734126  0.475977  1.197000
      ESP Fit Center  770 is at  -3.794932  0.053063  1.197000
      ESP Fit Center  771 is at  -3.734126 -0.369850  1.197000
      ESP Fit Center  772 is at  -3.556635 -0.758502  1.197000
      ESP Fit Center  773 is at  -2.502327  1.770311  0.832956
      ESP Fit Center  774 is at  -2.907232  1.670511  0.832956
      ESP Fit Center  775 is at  -3.276488  1.476710  0.832956
      ESP Fit Center  776 is at  -3.588634  1.200173  0.832956
      ESP Fit Center  777 is at  -3.825531  0.856969  0.832956
      ESP Fit Center  778 is at  -3.973409  0.467046  0.832956
      ESP Fit Center  779 is at  -4.023676  0.053063  0.832956
      ESP Fit Center  780 is at  -3.973409 -0.360919  0.832956
      ESP Fit Center  781 is at  -3.825531 -0.750843  0.832956
      ESP Fit Center  782 is at  -3.588634 -1.094046  0.832956
      ESP Fit Center  783 is at  -2.710344  1.877993  0.427139
      ESP Fit Center  784 is at  -3.105986  1.739552  0.427139
      ESP Fit Center  785 is at  -3.460902  1.516544  0.427139
      ESP Fit Center  786 is at  -3.757296  1.220150  0.427139
      ESP Fit Center  787 is at  -3.980304  0.865234  0.427139
      ESP Fit Center  788 is at  -4.118746  0.469592  0.427139
[...]
 3048 Fit      -0.008628
 3049 Fit      -0.010431
 3050 Fit      -0.012056
 3051 Fit      -0.013394
 3052 Fit      -0.014347
 3053 Fit      -0.014843
 3054 Fit      -0.014843
 3055 Fit      -0.014348
 3056 Fit      -0.013395
 3057 Fit      -0.012057
 3058 Fit      -0.010432
 3059 Fit      -0.008629
 3060 Fit      -0.006751
 3061 Fit      -0.004856
 3062 Fit      -0.002917
 3063 Fit      -0.002916
 3064 Fit      -0.003096
 3065 Fit      -0.004887
 3066 Fit      -0.006737
 3067 Fit      -0.008595
 3068 Fit      -0.010367
 3069 Fit      -0.011954
 3070 Fit      -0.013266
 3071 Fit      -0.014226
 3072 Fit      -0.014779
 3073 Fit      -0.014892
 3074 Fit      -0.014557
 3075 Fit      -0.013795
 3076 Fit      -0.012650
 3077 Fit      -0.011190
 3078 Fit      -0.009499
 3079 Fit      -0.007672
 3080 Fit      -0.005808
 3081 Fit      -0.003985
 3082 Fit      -0.002814
 3083 Fit      -0.004682
 3084 Fit      -0.006622
 3085 Fit      -0.008529
 3086 Fit      -0.010302
 3087 Fit      -0.011858
 3088 Fit      -0.013125
 3089 Fit      -0.014042
 3090 Fit      -0.014567
 3091 Fit      -0.014673
 3092 Fit      -0.014356
 3093 Fit      -0.013631
 3094 Fit      -0.012533
 3095 Fit      -0.011113
 3096 Fit      -0.009439
 3097 Fit      -0.007588
 3098 Fit      -0.005651
 3099 Fit      -0.003734
 3100 Fit      -0.002360
 3101 Fit      -0.004423
 3102 Fit      -0.006465
 3103 Fit      -0.008396
 3104 Fit      -0.010143
 3105 Fit      -0.011646
 3106 Fit      -0.012853
 3107 Fit      -0.013719
 3108 Fit      -0.014212
 3109 Fit      -0.014311
 3110 Fit      -0.014014
 3111 Fit      -0.013332
 3112 Fit      -0.012290
 3113 Fit      -0.010929
 3114 Fit      -0.009297
 3115 Fit      -0.007451
 3116 Fit      -0.005454
 3117 Fit      -0.003388
 3118 Fit      -0.002198
 3119 Fit      -0.004467
 3120 Fit      -0.006585
 3121 Fit      -0.008508
 3122 Fit      -0.010197
 3123 Fit      -0.011610
 3124 Fit      -0.012711
 3125 Fit      -0.013465
 3126 Fit      -0.013848
 3127 Fit      -0.013848
 3128 Fit      -0.013465
 3129 Fit      -0.012711
 3130 Fit      -0.011611
 3131 Fit      -0.010198
 3132 Fit      -0.008509
 3133 Fit      -0.006586
 3134 Fit      -0.004468
 3135 Fit      -0.002200
 3136 Fit      -0.002457
 3137 Fit      -0.004782
 3138 Fit      -0.006867
 3139 Fit      -0.008710
 3140 Fit      -0.010290
 3141 Fit      -0.011582
 3142 Fit      -0.012557
 3143 Fit      -0.013190
 3144 Fit      -0.013465
 3145 Fit      -0.013374
 3146 Fit      -0.012918
 3147 Fit      -0.012111
 3148 Fit      -0.010975
 3149 Fit      -0.009535
 3150 Fit      -0.007821
 3151 Fit      -0.005855
 3152 Fit      -0.003651
 3153 Fit      -0.001203
 3154 Fit      -0.000786
 3155 Fit      -0.003347
 3156 Fit      -0.005592
 3157 Fit      -0.007561
 3158 Fit      -0.009261
 3159 Fit      -0.010679
 3160 Fit      -0.011793
 3161 Fit      -0.012582
 3162 Fit      -0.013027
 3163 Fit      -0.013116
 3164 Fit      -0.012849
 3165 Fit      -0.012230
 3166 Fit      -0.011276
 3167 Fit      -0.010007
 3168 Fit      -0.008445
 3169 Fit      -0.006610
 3170 Fit      -0.004506
 3171 Fit      -0.002112
 3172 Fit      -0.002445
 3173 Fit      -0.004813
 3174 Fit      -0.006870
 3175 Fit      -0.008644
 3176 Fit      -0.010134
 3177 Fit      -0.011323
 3178 Fit      -0.012191
 3179 Fit      -0.012720
 3180 Fit      -0.012898
 3181 Fit      -0.012720
 3182 Fit      -0.012191
 3183 Fit      -0.011323
 3184 Fit      -0.010134
 3185 Fit      -0.008644
 3186 Fit      -0.006870
 3187 Fit      -0.004813
 3188 Fit      -0.002446
 3189 Fit      -0.001963
 3190 Fit      -0.004371
 3191 Fit      -0.006458
 3192 Fit      -0.008262
 3193 Fit      -0.009788
 3194 Fit      -0.011023
 3195 Fit      -0.011949
 3196 Fit      -0.012548
 3197 Fit      -0.012807
 3198 Fit      -0.012720
 3199 Fit      -0.012290
 3200 Fit      -0.011526
 3201 Fit      -0.010443
 3202 Fit      -0.009061
 3203 Fit      -0.007395
 3204 Fit      -0.005451
 3205 Fit      -0.003212
 3206 Fit      -0.000610
 3207 Fit      -0.002446
 3208 Fit      -0.004813
 3209 Fit      -0.006870
 3210 Fit      -0.008644
 3211 Fit      -0.010134
 3212 Fit      -0.011323
 3213 Fit      -0.012191
 3214 Fit      -0.012720
 3215 Fit      -0.012898
 3216 Fit      -0.012720
 3217 Fit      -0.012191
 3218 Fit      -0.011323
 3219 Fit      -0.010134
 3220 Fit      -0.008644
 3221 Fit      -0.006870
 3222 Fit      -0.004813
 3223 Fit      -0.002445
 3224 Fit      -0.000787
 3225 Fit      -0.003348
 3226 Fit      -0.005592
 3227 Fit      -0.007561
 3228 Fit      -0.009261
 3229 Fit      -0.010679
 3230 Fit      -0.011794
 3231 Fit      -0.012582
 3232 Fit      -0.013027
 3233 Fit      -0.013116
 3234 Fit      -0.012848
 3235 Fit      -0.012230
 3236 Fit      -0.011276
 3237 Fit      -0.010006
 3238 Fit      -0.008445
 3239 Fit      -0.006610
 3240 Fit      -0.004506
 3241 Fit      -0.002111
 3242 Fit      -0.002458
 3243 Fit      -0.004783
 3244 Fit      -0.006868
 3245 Fit      -0.008711
 3246 Fit      -0.010291
 3247 Fit      -0.011582
 3248 Fit      -0.012557
 3249 Fit      -0.013191
 3250 Fit      -0.013465
 3251 Fit      -0.013373
 3252 Fit      -0.012918
 3253 Fit      -0.012111
 3254 Fit      -0.010974
 3255 Fit      -0.009534
 3256 Fit      -0.007820
 3257 Fit      -0.005854
 3258 Fit      -0.003649
 3259 Fit      -0.001201
 3260 Fit      -0.002200
 3261 Fit      -0.004469
 3262 Fit      -0.006586
 3263 Fit      -0.008509
 3264 Fit      -0.010198
 3265 Fit      -0.011611
 3266 Fit      -0.012711
 3267 Fit      -0.013465
 3268 Fit      -0.013848
 3269 Fit      -0.013848
 3270 Fit      -0.013465
 3271 Fit      -0.012711
 3272 Fit      -0.011610
 3273 Fit      -0.010197
 3274 Fit      -0.008508
 3275 Fit      -0.006585
 3276 Fit      -0.004467
 3277 Fit      -0.002198
 3278 Fit      -0.002362
 3279 Fit      -0.004424
 3280 Fit      -0.006467
 3281 Fit      -0.008397
 3282 Fit      -0.010144
 3283 Fit      -0.011647
 3284 Fit      -0.012854
 3285 Fit      -0.013720
 3286 Fit      -0.014212
 3287 Fit      -0.014311
 3288 Fit      -0.014014
 3289 Fit      -0.013331
 3290 Fit      -0.012290
 3291 Fit      -0.010928
 3292 Fit      -0.009296
 3293 Fit      -0.007449
 3294 Fit      -0.005453
 3295 Fit      -0.003387
 3296 Fit      -0.002816
 3297 Fit      -0.004683
 3298 Fit      -0.006624
 3299 Fit      -0.008530
 3300 Fit      -0.010303
 3301 Fit      -0.011859
 3302 Fit      -0.013125
 3303 Fit      -0.014042
 3304 Fit      -0.014567
 3305 Fit      -0.014673
 3306 Fit      -0.014355
 3307 Fit      -0.013630
 3308 Fit      -0.012532
 3309 Fit      -0.011112
 3310 Fit      -0.009438
 3311 Fit      -0.007586
 3312 Fit      -0.005650
 3313 Fit      -0.003732
 3314 Fit      -0.003098
 3315 Fit      -0.004888
 3316 Fit      -0.006739
 3317 Fit      -0.008596
 3318 Fit      -0.010368
 3319 Fit      -0.011955
 3320 Fit      -0.013266
 3321 Fit      -0.014227
 3322 Fit      -0.014780
 3323 Fit      -0.014892
 3324 Fit      -0.014556
 3325 Fit      -0.013794
 3326 Fit      -0.012649
 3327 Fit      -0.011189
 3328 Fit      -0.009498
 3329 Fit      -0.007671
 3330 Fit      -0.005806
 3331 Fit      -0.003984
 3332 Fit      -0.004856
 3333 Fit      -0.006751
 3334 Fit      -0.008630
 3335 Fit      -0.010432
 3336 Fit      -0.012057
 3337 Fit      -0.013395
 3338 Fit      -0.014348
 3339 Fit      -0.014843
 3340 Fit      -0.014843
 3341 Fit      -0.014347
 3342 Fit      -0.013394
 3343 Fit      -0.012056
 3344 Fit      -0.010431
 3345 Fit      -0.008628
 3346 Fit      -0.006750
 3347 Fit      -0.004855
 3348 Fit      -0.002916
 3349 Fit      -0.002917
 3350 Fit      -0.006412
 3351 Fit      -0.008426
 3352 Fit      -0.010345
 3353 Fit      -0.012060
 3354 Fit      -0.013426
 3355 Fit      -0.014310
 3356 Fit      -0.014615
 3357 Fit      -0.014309
 3358 Fit      -0.013426
 3359 Fit      -0.012059
 3360 Fit      -0.010344
 3361 Fit      -0.008425
 3362 Fit      -0.006411
 3363 Fit      -0.004346
 3364 Fit      -0.002260
 3365 Fit       0.001674
 3366 Fit       0.001829
 3367 Fit       0.001673
 3368 Fit      -0.002261
 3369 Fit      -0.004347
 3370 Fit      -0.007726
 3371 Fit      -0.009809
 3372 Fit      -0.011673
 3373 Fit      -0.013098
 3374 Fit      -0.013874
 3375 Fit      -0.013874
 3376 Fit      -0.013097
 3377 Fit      -0.011672
 3378 Fit      -0.009808
 3379 Fit      -0.007725
 3380 Fit      -0.005607
 3381 Fit      -0.003675
 3382 Fit      -0.002256
 3383 Fit      -0.001566
 3384 Fit      -0.001566
 3385 Fit      -0.002257
 3386 Fit      -0.003676
 3387 Fit      -0.005608
 3388 Fit      -0.008730
 3389 Fit      -0.010814
 3390 Fit      -0.012362
 3391 Fit      -0.012937
 3392 Fit      -0.012361
 3393 Fit      -0.010814
 3394 Fit      -0.008730
 3395 Fit      -0.006636
 3396 Fit      -0.005095
 3397 Fit      -0.004542
 3398 Fit      -0.005096
 3399 Fit      -0.006636
 3400 Fit      -0.009363
 3401 Fit      -0.011190
 3402 Fit      -0.011190
 3403 Fit      -0.009362
 3404 Fit      -0.007539
 3405 Fit      -0.007539
 3406 Fit      -0.009578
 3407 Fit       0.000788
 3408 Fit      -0.001482
 3409 Fit       0.001720
 3410 Fit       0.000017
 3411 Fit      -0.002325
 3412 Fit       0.003548
 3413 Fit       0.002701
 3414 Fit       0.001590
 3415 Fit       0.000001
 3416 Fit       0.004129
 3417 Fit       0.004553
 3418 Fit       0.005089
 3419 Fit       0.004892
 3420 Fit       0.005637
 3421 Fit       0.005353
 3422 Fit       0.005247
 3423 Fit       0.005320
 3424 Fit       0.005691
 3425 Fit       0.005461
 3426 Fit       0.005378
 3427 Fit       0.005473
 3428 Fit       0.006360
 3429 Fit       0.006019
 3430 Fit       0.005729
 3431 Fit       0.005519
 3432 Fit       0.005417
 3433 Fit       0.005459
 3434 Fit       0.005688
 3435 Fit       0.008135
 3436 Fit       0.007762
 3437 Fit       0.007426
 3438 Fit       0.007108
 3439 Fit       0.006790
 3440 Fit       0.006469
 3441 Fit       0.006155
 3442 Fit       0.005869
 3443 Fit       0.005632
 3444 Fit       0.005470
 3445 Fit       0.005415
 3446 Fit       0.005508
 3447 Fit       0.005799
 3448 Fit       0.008135
 3449 Fit       0.007762
 3450 Fit       0.007426
 3451 Fit       0.007108
 3452 Fit       0.006790
 3453 Fit       0.006469
 3454 Fit       0.006155
 3455 Fit       0.005869
 3456 Fit       0.005632
 3457 Fit       0.005470
 3458 Fit       0.005415
 3459 Fit       0.005508
 3460 Fit       0.005799
 3461 Fit       0.006360
 3462 Fit       0.006019
 3463 Fit       0.005729
 3464 Fit       0.005519
 3465 Fit       0.005417
 3466 Fit       0.005459
 3467 Fit       0.005688
 3468 Fit       0.005691
 3469 Fit       0.005461
 3470 Fit       0.005378
 3471 Fit       0.005473
 3472 Fit       0.005637
 3473 Fit       0.005353
 3474 Fit       0.005247
 3475 Fit       0.005319
 3476 Fit       0.005089
 3477 Fit       0.004892
 3478 Fit       0.004129
 3479 Fit       0.004553
 3480 Fit       0.003548
 3481 Fit       0.002700
 3482 Fit       0.001589
 3483 Fit      -0.000001
 3484 Fit       0.001719
 3485 Fit       0.000016
 3486 Fit      -0.002327
 3487 Fit       0.000788
 3488 Fit      -0.001483
 3489 Fit       0.003323
 3490 Fit       0.002503
 3491 Fit       0.001255
 3492 Fit      -0.000609
 3493 Fit       0.004073
 3494 Fit       0.003529
 3495 Fit       0.002683
 3496 Fit       0.001413
 3497 Fit      -0.000417
 3498 Fit       0.004447
 3499 Fit       0.004711
 3500 Fit       0.004342
 3501 Fit       0.003730
 3502 Fit       0.002793
 3503 Fit       0.001441
 3504 Fit      -0.000438
 3505 Fit       0.005114
 3506 Fit       0.004931
 3507 Fit       0.005226
 3508 Fit       0.004983
 3509 Fit       0.004544
 3510 Fit       0.003851
 3511 Fit       0.002846
 3512 Fit       0.001468
 3513 Fit      -0.000372
 3514 Fit       0.005405
 3515 Fit       0.005341
 3516 Fit       0.005605
 3517 Fit       0.005432
 3518 Fit       0.005077
 3519 Fit       0.004490
 3520 Fit       0.003624
 3521 Fit       0.002434
 3522 Fit       0.000864
 3523 Fit       0.005663
 3524 Fit       0.005651
 3525 Fit       0.005656
 3526 Fit       0.005838
 3527 Fit       0.005709
 3528 Fit       0.005415
 3529 Fit       0.004912
 3530 Fit       0.004162
 3531 Fit       0.003130
 3532 Fit       0.001779
 3533 Fit       0.005774
 3534 Fit       0.005810
 3535 Fit       0.005852
 3536 Fit       0.005916
 3537 Fit       0.005803
 3538 Fit       0.005533
 3539 Fit       0.005066
 3540 Fit       0.004365
 3541 Fit       0.003401
 3542 Fit       0.002141
 3543 Fit       0.000550
 3544 Fit       0.005816
 3545 Fit       0.005866
 3546 Fit       0.005919
 3547 Fit       0.005838
 3548 Fit       0.005709
 3549 Fit       0.005415
 3550 Fit       0.004912
 3551 Fit       0.004162
 3552 Fit       0.003130
 3553 Fit       0.001778
 3554 Fit       0.005774
 3555 Fit       0.005810
 3556 Fit       0.005852
 3557 Fit       0.005605
 3558 Fit       0.005432
 3559 Fit       0.005077
 3560 Fit       0.004490
 3561 Fit       0.003624
 3562 Fit       0.002434
 3563 Fit       0.000864
 3564 Fit       0.005663
 3565 Fit       0.005650
 3566 Fit       0.005656
 3567 Fit       0.005226
 3568 Fit       0.004982
 3569 Fit       0.004544
 3570 Fit       0.003850
 3571 Fit       0.002846
 3572 Fit       0.001467
 3573 Fit      -0.000373
 3574 Fit       0.005405
 3575 Fit       0.005341
 3576 Fit       0.004710
 3577 Fit       0.004341
 3578 Fit       0.003730
 3579 Fit       0.002792
 3580 Fit       0.001441
 3581 Fit      -0.000439
 3582 Fit       0.005114
 3583 Fit       0.004931
 3584 Fit       0.004072
 3585 Fit       0.003528
 3586 Fit       0.002682
 3587 Fit       0.001412
 3588 Fit      -0.000418
 3589 Fit       0.004447
 3590 Fit       0.003323
 3591 Fit       0.002502
 3592 Fit       0.001255
 3593 Fit      -0.000610
 3594 Fit       0.003400
 3595 Fit       0.003618
 3596 Fit       0.001935
 3597 Fit       0.001427
 3598 Fit       0.003238
 3599 Fit       0.004800
 3600 Fit       0.004787
 3601 Fit       0.003835
 3602 Fit       0.002331
 3603 Fit       0.000488
 3604 Fit      -0.001159
 3605 Fit       0.000497
 3606 Fit       0.003250
 3607 Fit       0.005229
 3608 Fit       0.006075
 3609 Fit       0.006151
 3610 Fit       0.005739
 3611 Fit       0.004959
 3612 Fit       0.004039
 3613 Fit       0.002837
 3614 Fit       0.001248
 3615 Fit      -0.000816
 3616 Fit       0.005896
 3617 Fit       0.006897
 3618 Fit       0.007181
 3619 Fit       0.007108
 3620 Fit       0.006819
 3621 Fit       0.006359
 3622 Fit       0.005745
 3623 Fit       0.004981
 3624 Fit       0.004243
 3625 Fit       0.003286
 3626 Fit       0.002007
 3627 Fit       0.008277
 3628 Fit       0.008156
 3629 Fit       0.007912
 3630 Fit       0.007608
 3631 Fit       0.007240
 3632 Fit       0.006798
 3633 Fit       0.006279
 3634 Fit       0.005686
 3635 Fit       0.005017
 3636 Fit       0.004479
 3637 Fit       0.003773
 3638 Fit       0.009354
 3639 Fit       0.008744
 3640 Fit       0.008290
 3641 Fit       0.007899
 3642 Fit       0.007511
 3643 Fit       0.007094
 3644 Fit       0.006637
 3645 Fit       0.006145
 3646 Fit       0.005623
 3647 Fit       0.005075
 3648 Fit       0.004796
 3649 Fit       0.009703
 3650 Fit       0.008912
 3651 Fit       0.008389
 3652 Fit       0.007974
 3653 Fit       0.007592
 3654 Fit       0.007207
 3655 Fit       0.006805
 3656 Fit       0.006389
 3657 Fit       0.005969
 3658 Fit       0.005558
 3659 Fit       0.005168
 3660 Fit       0.009241
 3661 Fit       0.008569
 3662 Fit       0.008097
 3663 Fit       0.007703
 3664 Fit       0.007333
 3665 Fit       0.006964
 3666 Fit       0.006592
 3667 Fit       0.006224
 3668 Fit       0.005880
 3669 Fit       0.005583
 3670 Fit       0.009398
 3671 Fit       0.008629
 3672 Fit       0.008119
 3673 Fit       0.007719
 3674 Fit       0.007365
 3675 Fit       0.007026
 3676 Fit       0.006694
 3677 Fit       0.006373
 3678 Fit       0.006078
 3679 Fit       0.005833
 3680 Fit       0.008806
 3681 Fit       0.008227
 3682 Fit       0.007797
 3683 Fit       0.007439
 3684 Fit       0.007115
 3685 Fit       0.006809
 3686 Fit       0.006518
 3687 Fit       0.006252
 3688 Fit       0.007763
 3689 Fit       0.007403
 3690 Fit       0.007086
 3691 Fit       0.006794
 3692 Fit       0.007763
 3693 Fit       0.007403
 3694 Fit       0.007086
 3695 Fit       0.006794
 3696 Fit       0.008806
 3697 Fit       0.008227
 3698 Fit       0.007797
 3699 Fit       0.007439
 3700 Fit       0.007115
 3701 Fit       0.006809
 3702 Fit       0.006518
 3703 Fit       0.006252
 3704 Fit       0.009398
 3705 Fit       0.008629
 3706 Fit       0.008119
 3707 Fit       0.007719
 3708 Fit       0.007365
 3709 Fit       0.007026
 3710 Fit       0.006694
 3711 Fit       0.006373
 3712 Fit       0.006078
 3713 Fit       0.005833
 3714 Fit       0.009241
 3715 Fit       0.008569
 3716 Fit       0.008097
 3717 Fit       0.007704
 3718 Fit       0.007333
 3719 Fit       0.006964
 3720 Fit       0.006592
 3721 Fit       0.006225
 3722 Fit       0.005880
 3723 Fit       0.005582
 3724 Fit       0.004796
 3725 Fit       0.009703
 3726 Fit       0.008912
 3727 Fit       0.008389
 3728 Fit       0.007974
 3729 Fit       0.007592
 3730 Fit       0.007207
 3731 Fit       0.006805
 3732 Fit       0.006389
 3733 Fit       0.005969
 3734 Fit       0.005558
 3735 Fit       0.005168
 3736 Fit       0.004479
 3737 Fit       0.003773
 3738 Fit       0.009355
 3739 Fit       0.008744
 3740 Fit       0.008290
 3741 Fit       0.007900
 3742 Fit       0.007511
 3743 Fit       0.007094
 3744 Fit       0.006637
 3745 Fit       0.006145
 3746 Fit       0.005623
 3747 Fit       0.005075
 3748 Fit       0.004242
 3749 Fit       0.003286
 3750 Fit       0.002007
 3751 Fit       0.008277
 3752 Fit       0.008157
 3753 Fit       0.007912
 3754 Fit       0.007608
 3755 Fit       0.007240
 3756 Fit       0.006798
 3757 Fit       0.006279
 3758 Fit       0.005686
 3759 Fit       0.005017
 3760 Fit       0.004039
 3761 Fit       0.002837
 3762 Fit       0.001247
 3763 Fit      -0.000817
 3764 Fit       0.005896
 3765 Fit       0.006897
 3766 Fit       0.007181
 3767 Fit       0.007108
 3768 Fit       0.006819
 3769 Fit       0.006359
 3770 Fit       0.005745
 3771 Fit       0.004981
 3772 Fit       0.003835
 3773 Fit       0.002331
 3774 Fit       0.000488
 3775 Fit      -0.001160
 3776 Fit       0.000496
 3777 Fit       0.003250
 3778 Fit       0.005229
 3779 Fit       0.006075
 3780 Fit       0.006151
 3781 Fit       0.005739
 3782 Fit       0.004959
 3783 Fit       0.003618
 3784 Fit       0.001934
 3785 Fit       0.001427
 3786 Fit       0.003238
 3787 Fit       0.004800
 3788 Fit       0.004786
 3789 Fit       0.003400
 -----------------------------------------------------------------
 Leave Link  602 at Tue Feb 14 10:18:44 2023, MaxMem=  3758096384 cpu:               4.1 elap:               0.2

 Test job not archived.
 1\1\GINC-RAYL8\SP\RB3LYP\Aug-CC-pVDZ\C2H6S1\ZHUQIANG\14-Feb-2023\0\\#b
 3lyp/aug-cc-pvdz #SCF=tight #maxdisk=200GB #Pop=MK iop(6/33=2) iop(6/4
 2=6) iop(6/43=20) #IOP(5/87=12) #density=current\\C3 MP2/6-311++G(d,p)
  coordinates\\0,1\C,0,-1.3617968718,-0.5157896698,-0.0000578353\H,0,-2
 .2938154746,0.0530632459,-0.0001009106\H,0,-1.3387383811,-1.144434094,
 -0.8939501381\H,0,-1.3388155157,-1.1444254461,0.8938425781\S,0,0.,0.66
 63167885,-0.0000057946\C,0,1.361796872,-0.5157896688,0.0000668884\H,0,
 2.2938154748,0.0530632474,0.0001089711\H,0,1.3387337436,-1.1444252837,
 0.8939653051\H,0,1.3388201518,-1.1444342539,-0.8938274107\\Version=ES6
 4L-G16RevA.03\State=1-A\HF=-478.0401729\RMSD=1.224e-09\Dipole=0.,-0.63
 49976,0.0000054\Quadrupole=2.2048911,-1.0452379,-1.1596532,0.,0.000154
 ,-0.0000032\PG=C01 [X(C2H6S1)]\\@


 TOWERING GENIUS DISDAINS A BEATEN PATH.  IT SEEKS 
 REGIONS HITHERTO UNEXPLORED.

                                -- ABRAHAM LINCOLN
 Job cpu time:       0 days  0 hours  6 minutes 20.3 seconds.
 Elapsed time:       0 days  0 hours  0 minutes 14.6 seconds.
 File lengths (MBytes):  RWF=     10 Int=      0 D2E=      0 Chk=      2 Scr=      1
 Normal termination of Gaussian 16 at Tue Feb 14 10:18:44 2023.
