 Entering Gaussian System, Link 0=g16
 Input=NH4+.com
 Output=NH4+.log
 Initial command:
 /home/zhuqiang/software/g16/l1.exe "/tmp/Gau-98117.inp" -scrdir="/tmp/"
 Entering Link 1 = /home/zhuqiang/software/g16/l1.exe PID=     98118.
  
 Copyright (c) 1988,1990,1992,1993,1995,1998,2003,2009,2016,
            Gaussian, Inc.  All Rights Reserved.
  
 This is part of the Gaussian(R) 16 program.  It is based on
 the Gaussian(R) 09 system (copyright 2009, Gaussian, Inc.),
 the Gaussian(R) 03 system (copyright 2003, Gaussian, Inc.),
 the Gaussian(R) 98 system (copyright 1998, Gaussian, Inc.),
 the Gaussian(R) 94 system (copyright 1995, Gaussian, Inc.),
 the Gaussian 92(TM) system (copyright 1992, Gaussian, Inc.),
 the Gaussian 90(TM) system (copyright 1990, Gaussian, Inc.),
 the Gaussian 88(TM) system (copyright 1988, Gaussian, Inc.),
 the Gaussian 86(TM) system (copyright 1986, Carnegie Mellon
 University), and the Gaussian 82(TM) system (copyright 1983,
 Carnegie Mellon University). Gaussian is a federally registered
 trademark of Gaussian, Inc.
  
 This software contains proprietary and confidential information,
 including trade secrets, belonging to Gaussian, Inc.
  
 This software is provided under written license and may be
 used, copied, transmitted, or stored only in accord with that
 written license.
  
 The following legend is applicable only to US Government
 contracts under FAR:
  
                    RESTRICTED RIGHTS LEGEND
  
 Use, reproduction and disclosure by the US Government is
 subject to restrictions as set forth in subparagraphs (a)
 and (c) of the Commercial Computer Software - Restricted
 Rights clause in FAR 52.227-19.
  
 Gaussian, Inc.
 340 Quinnipiac St., Bldg. 40, Wallingford CT 06492
  
  
 ---------------------------------------------------------------
 Warning -- This program may not be used in any manner that
 competes with the business of Gaussian, Inc. or will provide
 assistance to any competitor of Gaussian, Inc.  The licensee
 of this program is prohibited from giving any competitor of
 Gaussian, Inc. access to this program.  By using this program,
 the user acknowledges that Gaussian, Inc. is engaged in the
 business of creating and licensing software in the field of
 computational chemistry and represents and warrants to the
 licensee that it is not a competitor of Gaussian, Inc. and that
 it will not use this program in any manner prohibited above.
 ---------------------------------------------------------------
  

 Cite this work as:
 Gaussian 16, Revision A.03,
 M. J. Frisch, G. W. Trucks, H. B. Schlegel, G. E. Scuseria, 
 M. A. Robb, J. R. Cheeseman, G. Scalmani, V. Barone, 
 G. A. Petersson, H. Nakatsuji, X. Li, M. Caricato, A. V. Marenich, 
 J. Bloino, B. G. Janesko, R. Gomperts, B. Mennucci, H. P. Hratchian, 
 J. V. Ortiz, A. F. Izmaylov, J. L. Sonnenberg, D. Williams-Young, 
 F. Ding, F. Lipparini, F. Egidi, J. Goings, B. Peng, A. Petrone, 
 T. Henderson, D. Ranasinghe, V. G. Zakrzewski, J. Gao, N. Rega, 
 G. Zheng, W. Liang, M. Hada, M. Ehara, K. Toyota, R. Fukuda, 
 J. Hasegawa, M. Ishida, T. Nakajima, Y. Honda, O. Kitao, H. Nakai, 
 T. Vreven, K. Throssell, J. A. Montgomery, Jr., J. E. Peralta, 
 F. Ogliaro, M. J. Bearpark, J. J. Heyd, E. N. Brothers, K. N. Kudin, 
 V. N. Staroverov, T. A. Keith, R. Kobayashi, J. Normand, 
 K. Raghavachari, A. P. Rendell, J. C. Burant, S. S. Iyengar, 
 J. Tomasi, M. Cossi, J. M. Millam, M. Klene, C. Adamo, R. Cammi, 
 J. W. Ochterski, R. L. Martin, K. Morokuma, O. Farkas, 
 J. B. Foresman, and D. J. Fox, Gaussian, Inc., Wallingford CT, 2016.
 
 ******************************************
 Gaussian 16:  ES64L-G16RevA.03 25-Dec-2016
                14-Feb-2023 
 ******************************************
 %chk=NH4+_b3lyp_a2z_esp
 %nproc=28
 Will use up to   28 processors via shared memory.
 %mem=28GB
 ----------------------------------------------------------------------
 #b3lyp/aug-cc-pvdz #SCF=tight #maxdisk=200GB #Pop=MK iop(6/33=2) iop(6
 /42=6) iop(6/43=20) #IOP(5/87=12) #density=current
 ----------------------------------------------------------------------
 1/30=1,38=1,172=1/1;
 2/12=2,17=6,18=5,40=1/2;
 3/5=16,7=10,11=2,25=1,30=1,74=-5/1,2,3;
 4//1;
 5/5=2,32=2,38=5,87=12/2;
 6/7=2,8=2,9=2,10=2,15=8,20=1,22=-1,28=1,33=2,42=6,43=20/1,2;
 99/5=1,9=1/99;
 ----------------------------------
 Coordinates from nh4_m6311_opt.chk
 ----------------------------------
 Symbolic Z-matrix:
 Charge =  1 Multiplicity = 1
 H                    -0.95119   0.34854   0.15296 
 N                    -0.00005   0.00009   0.00005 
 H                     0.14216  -0.85552   0.54537 
 H                     0.13311  -0.20382  -0.995 
 H                     0.67628   0.71017   0.29634 
 
                          Input orientation:                          
 ---------------------------------------------------------------------
 Center     Atomic      Atomic             Coordinates (Angstroms)
 Number     Number       Type             X           Y           Z
 ---------------------------------------------------------------------
      1          1           0       -0.951190    0.348538    0.152959
      2          7           0       -0.000052    0.000090    0.000048
      3          1           0        0.142160   -0.855519    0.545365
      4          1           0        0.133113   -0.203822   -0.995004
      5          1           0        0.676283    0.710173    0.296343
 ---------------------------------------------------------------------
                    Distance matrix (angstroms):
                    1          2          3          4          5
     1  H    0.000000
     2  N    1.024432   0.000000
     3  H    1.673066   1.024530   0.000000
     4  H    1.672911   1.024422   1.672581   0.000000
     5  H    1.673322   1.024420   1.672928   1.672721   0.000000
 Stoichiometry    H4N(1+)
 Framework group  C1[X(H4N)]
 Deg. of freedom     9
 Full point group                 C1      NOp   1
 Largest Abelian subgroup         C1      NOp   1
 Largest concise Abelian subgroup C1      NOp   1
                         Standard orientation:                         
 ---------------------------------------------------------------------
 Center     Atomic      Atomic             Coordinates (Angstroms)
 Number     Number       Type             X           Y           Z
 ---------------------------------------------------------------------
      1          1           0        0.951190    0.348538   -0.152959
      2          7           0        0.000052    0.000090   -0.000048
      3          1           0       -0.142160   -0.855519   -0.545365
      4          1           0       -0.133113   -0.203822    0.995004
      5          1           0       -0.676283    0.710173   -0.296343
 ---------------------------------------------------------------------
 Rotational constants (GHZ):         179.2222182         179.1729419         179.1340027
 Standard basis: Aug-CC-pVDZ (5D, 7F)
 There are    61 symmetry adapted cartesian basis functions of A   symmetry.
 There are    59 symmetry adapted basis functions of A   symmetry.
    59 basis functions,    87 primitive gaussians,    61 cartesian basis functions
     5 alpha electrons        5 beta electrons
       nuclear repulsion energy        16.3612311364 Hartrees.
 NAtoms=    5 NActive=    5 NUniq=    5 SFac= 1.00D+00 NAtFMM=   60 NAOKFM=F Big=F
 Integral buffers will be    131072 words long.
 Raffenetti 2 integral format.
 Two-electron integral symmetry is turned on.
 One-electron integrals computed using PRISM.
 NBasis=    59 RedAO= T EigKep=  1.99D-03  NBF=    59
 NBsUse=    59 1.00D-06 EigRej= -1.00D+00 NBFU=    59
 ExpMin= 2.97D-02 ExpMax= 9.05D+03 ExpMxC= 3.09D+02 IAcc=3 IRadAn=         5 AccDes= 0.00D+00
 Harris functional with IExCor=  402 and IRadAn=       5 diagonalized for initial guess.
 HarFok:  IExCor=  402 AccDes= 0.00D+00 IRadAn=         5 IDoV= 1 UseB2=F ITyADJ=14
 ICtDFT=  3500011 ScaDFX=  1.000000  1.000000  1.000000  1.000000
 FoFCou: FMM=F IPFlag=           0 FMFlag=      100000 FMFlg1=           0
         NFxFlg=           0 DoJE=T BraDBF=F KetDBF=T FulRan=T
         wScrn=  0.000000 ICntrl=       500 IOpCl=  0 I1Cent=   200000004 NGrid=           0
         NMat0=    1 NMatS0=      1 NMatT0=    0 NMatD0=    1 NMtDS0=    0 NMtDT0=    0
 Petite list used in FoFCou.
 Keep R1 ints in memory in canonical form, NReq=26315680.
 Requested convergence on RMS density matrix=1.00D-08 within 128 cycles.
 Requested convergence on MAX density matrix=1.00D-06.
 Requested convergence on             energy=1.00D-06.
 No special actions if energy rises.
 SCF Done:  E(RB3LYP) =  -56.9055987893     A.U. after    6 cycles
            NFock=  6  Conv=0.71D-08     -V/T= 2.0075
 SCF density gives NOpUse=  1 NOpAll=  1.

 **********************************************************************

            Population analysis using the SCF density.

 **********************************************************************

 Orbital symmetries:
 BldTbl:  Degeneracy threshold= 1.00D-02
       Occupied  (A) (A) (A) (A) (A)
       Virtual   (A) (A) (A) (A) (A) (A) (A) (A) (A) (A) (A) (A)
                 (A) (A) (A) (A) (A) (A) (A) (A) (A) (A) (A) (A)
                 (A) (A) (A) (A) (A) (A) (A) (A) (A) (A) (A) (A)
                 (A) (A) (A) (A) (A) (A) (A) (A) (A) (A) (A) (A)
                 (A) (A) (A) (A) (A) (A)
 The electronic state is 1-A.
 Alpha  occ. eigenvalues --  -14.70880  -1.25039  -0.82625  -0.82615  -0.82609
 Alpha virt. eigenvalues --   -0.24001  -0.15702  -0.15700  -0.15699  -0.10661
 Alpha virt. eigenvalues --   -0.10660  -0.10656  -0.06032  -0.02615  -0.02615
 Alpha virt. eigenvalues --   -0.02591  -0.02591  -0.02590   0.10058   0.19182
 Alpha virt. eigenvalues --    0.19184   0.19186   0.20105   0.20106   0.20108
 Alpha virt. eigenvalues --    0.24684   0.26059   0.26062   0.26067   0.38401
 Alpha virt. eigenvalues --    0.38405   0.38413   0.44208   0.44209   0.64750
 Alpha virt. eigenvalues --    0.73691   0.73710   0.73725   1.26673   1.26697
 Alpha virt. eigenvalues --    1.26718   1.34798   1.34811   1.34823   1.71435
 Alpha virt. eigenvalues --    1.71438   1.72671   1.73281   1.73298   1.73305
 Alpha virt. eigenvalues --    1.86495   1.86501   1.86504   2.29598   2.31939
 Alpha virt. eigenvalues --    2.31946   2.79544   2.79548   2.79563
          Condensed to atoms (all electrons):
               1          2          3          4          5
     1  H    0.780829   0.360452  -0.095750  -0.095793  -0.095796
     2  N    0.360452   5.142241   0.360417   0.360460   0.360458
     3  H   -0.095750   0.360417   0.780728  -0.095743  -0.095751
     4  H   -0.095793   0.360460  -0.095743   0.780992  -0.095798
     5  H   -0.095796   0.360458  -0.095751  -0.095798   0.780896
 Mulliken charges:
               1
     1  H    0.146058
     2  N    0.415972
     3  H    0.146098
     4  H    0.145881
     5  H    0.145991
 Sum of Mulliken charges =   1.00000
 Mulliken charges with hydrogens summed into heavy atoms:
               1
     2  N    1.000000
 DipInt: DoE/N= T F RetVal/Mat= T F Init=T NMatP=  1 IDeriv=0 Min/MaxMlt=  0  4
 Entering OneElI...
 OneElI was handed  3758085499 working-precision words.
 Multipole integrals L=0 to 4 MinM= 0 MaxM= 0.
 Requested accuracy = 0.1000D-12
 ShPair: Thresh= 1.00D-13 NBox=     0 BxSize= 0.00D+00 RnKept= 3.16D+00
         NSMCal=                  435 NSMKep=                 435
 PrmmSu-InSpLW:  IPartL=    0 NPrtUS=    1 NPrtUL=    1 DoSpLW=F IThBeg=    0 IThEnd=    0 NThAct=    1.
 PrsmSu:  NPrtUS=   1 ThrOK=F IAlg=1 NPAlg=1 LenDen=           0 ISkipM=0 DoSpLW=F IThBeg=    0 IThEnd=    0.
 Prism:   IPart=     0 DynPar=F LinDyn=F Incr=           4.
 PRISM was handed  3758052607 working-precision words and   435 shell-pairs
 IPart=  0 NShTot=         435 NBatch=          21 AvBLen=        20.7
 PrsmSu-ThDecC:  IPartSL=    0    0 NPrtUSL=    1    1 IThBeg=    0 IThEnd=    0 CPU=   -1 GPU=   -1 NThAct=    1.
 PrSmSu:  NxtVal=              5.
 Electronic moments (au):
        -10.00000000         -0.00019378         -0.00035085          0.00016578
         -8.24778446         -8.24660121         -8.24561138         -0.00000692
         -0.00000158         -0.00004352         -2.01154419          0.86193906
         -2.92193417          1.23422064         -2.28097618          0.98476723
          0.77788023          1.42075396          1.93724502         -0.19259260
        -29.55780087        -28.23667388        -29.84249152         -0.49522511
          0.24239513          0.66496611         -1.31132271          0.55822726
          0.48569701         -9.93144269         -8.31797777         -9.63251380
          0.82451002         -0.80078857         -0.17016722
 Electronic spatial extent (au):  <R**2>=             24.7400
 DipInt: DoE/N= F T RetVal/Mat= T F Init=T NMatP=  1 IDeriv=0 Min/MaxMlt=  0  4
 Nuclear    moments (au):
         11.00000000          0.00000000         -0.00000000          0.00000000
          4.99966754          4.99691954          4.99474709         -0.00000000
         -0.00000000         -0.00000000          3.68503677         -1.57992661
          5.35330989         -2.26142916          4.17888181         -1.80395190
         -1.42527229         -2.60296503         -3.54871096          0.35283772
         13.11588159         10.28544887         13.73297672          1.06141379
         -0.51975311         -1.42585205          2.81123268         -1.19710853
         -1.04241989          4.54121086          1.08251351          3.90163374
         -1.76816623          1.71705615          0.36488001
 Total      moments (au):
          1.00000000         -0.00019378         -0.00035085          0.00016578
         -3.24811693         -3.24968167         -3.25086428         -0.00000692
         -0.00000158         -0.00004352          1.67349258         -0.71798756
          2.43137572         -1.02720852          1.89790562         -0.81918467
         -0.64739206         -1.18221107         -1.61146594          0.16024512
        -16.44191928        -17.95122501        -16.10951481          0.56618869
         -0.27735797         -0.76088594          1.49990996         -0.63888127
         -0.55672288         -5.39023184         -7.23546426         -5.73088006
         -0.94365621          0.91626758          0.19471279
 Traceless Quadrup. (au):
          0.00143737         -0.00012738         -0.00130999         -0.00000692
         -0.00000158         -0.00004352
 Charge=              1.0000 electrons
 Dipole moment (field-independent basis, Debye):
    X=             -0.0005    Y=             -0.0009    Z=              0.0004  Tot=              0.0011
 Quadrupole moment (field-independent basis, Debye-Ang):
   XX=             -4.3688   YY=             -4.3709   ZZ=             -4.3725
   XY=             -0.0000   XZ=             -0.0000   YZ=             -0.0001
 Traceless Quadrupole moment (field-independent basis, Debye-Ang):
   XX=              0.0019   YY=             -0.0002   ZZ=             -0.0018
   XY=             -0.0000   XZ=             -0.0000   YZ=             -0.0001
 Octapole moment (field-independent basis, Debye-Ang**2):
  XXX=              1.1911  YYY=             -0.5110  ZZZ=              1.7306  XYY=             -0.7311
  XXY=              1.3509  XXZ=             -0.5831  XZZ=             -0.4608  YZZ=             -0.8415
  YYZ=             -1.1470  XYZ=              0.1141
 Hexadecapole moment (field-independent basis, Debye-Ang**3):
 XXXX=             -6.1928 YYYY=             -6.7613 ZZZZ=             -6.0676 XXXY=              0.2133
 XXXZ=             -0.1045 YYYX=             -0.2866 YYYZ=              0.5649 ZZZX=             -0.2406
 ZZZY=             -0.2097 XXYY=             -2.0302 XXZZ=             -2.7252 YYZZ=             -2.1585
 XXYZ=             -0.3554 YYXZ=              0.3451 ZZXY=              0.0733
 N-N= 1.636123113637D+01 E-N=-1.614168393030D+02  KE= 5.648450945176D+01
 Entering OneElI...
 OneElI was handed  3758087441 working-precision words.
 Calculate electrostatic properties
    NBasis =    59  MinDer = 0  MaxDer = 0
    NGrid  =     5  NMatD  =   1
 Requested accuracy = 0.1000D-12
 ShPair: Thresh= 1.00D-13 NBox=     0 BxSize= 0.00D+00 RnKept= 3.16D+00
         NSMCal=                  435 NSMKep=                 435
 PrmmSu-InSpLW:  IPartL=    0 NPrtUS=   28 NPrtUL=    1 DoSpLW=F IThBeg=    0 IThEnd=   27 NThAct=   28.
 PrsmSu:  NPrtUS=  28 ThrOK=T IAlg=1 NPAlg=1 LenDen=           0 ISkipM=0 DoSpLW=F IThBeg=    0 IThEnd=   27.
 Prism:   IPart=     0 DynPar=F LinDyn=F Incr=           1.
 PRISM was handed   134205212 working-precision words and   435 shell-pairs
 PRISM was handed   134205212 working-precision words and   435 shell-pairs
 PRISM was handed   134205212 working-precision words and   435 shell-pairs
 PRISM was handed   134205212 working-precision words and   435 shell-pairs
 PRISM was handed   134205212 working-precision words and   435 shell-pairs
 PRISM was handed   134205212 working-precision words and   435 shell-pairs
 PRISM was handed   134205212 working-precision words and   435 shell-pairs
 PRISM was handed   134205212 working-precision words and   435 shell-pairs
 PRISM was handed   134205212 working-precision words and   435 shell-pairs
 PRISM was handed   134205212 working-precision words and   435 shell-pairs
 PRISM was handed   134205212 working-precision words and   435 shell-pairs
 PRISM was handed   134205212 working-precision words and   435 shell-pairs
 PRISM was handed   134205212 working-precision words and   435 shell-pairs
 PRISM was handed   134205212 working-precision words and   435 shell-pairs
 PRISM was handed   134205212 working-precision words and   435 shell-pairs
 PRISM was handed   134205212 working-precision words and   435 shell-pairs
 PRISM was handed   134205212 working-precision words and   435 shell-pairs
 PRISM was handed   134205212 working-precision words and   435 shell-pairs
 PRISM was handed   134205212 working-precision words and   435 shell-pairs
 PRISM was handed   134205212 working-precision words and   435 shell-pairs
 PRISM was handed   134205212 working-precision words and   435 shell-pairs
 PRISM was handed   134205212 working-precision words and   435 shell-pairs
 PRISM was handed   134205212 working-precision words and   435 shell-pairs
 PRISM was handed   134205212 working-precision words and   435 shell-pairs
 PRISM was handed   134205212 working-precision words and   435 shell-pairs
 PRISM was handed   134205212 working-precision words and   435 shell-pairs
 PRISM was handed   134205212 working-precision words and   435 shell-pairs
 PRISM was handed   134205212 working-precision words and   435 shell-pairs
 IPart=  9 NShTot=          85 NBatch=          17 AvBLen=         5.0
 PrsmSu-ThDecC:  IPartSL=    9    0 NPrtUSL=   28    1 IThBeg=    0 IThEnd=   27 CPU=   -1 GPU=   -1 NThAct=   28.
 IPart=  2 NShTot=         125 NBatch=          25 AvBLen=         5.0
 PrsmSu-ThDecC:  IPartSL=    2    0 NPrtUSL=   28    1 IThBeg=    0 IThEnd=   27 CPU=   -1 GPU=   -1 NThAct=   27.
 IPart= 11 NShTot=          80 NBatch=          16 AvBLen=         5.0
 PrsmSu-ThDecC:  IPartSL=   11    0 NPrtUSL=   28    1 IThBeg=    0 IThEnd=   27 CPU=   -1 GPU=   -1 NThAct=   26.
 IPart= 17 NShTot=          70 NBatch=          14 AvBLen=         5.0
 PrsmSu-ThDecC:  IPartSL=   17    0 NPrtUSL=   28    1 IThBeg=    0 IThEnd=   27 CPU=   -1 GPU=   -1 NThAct=   25.
 IPart= 20 NShTot=          50 NBatch=          10 AvBLen=         5.0
 PrsmSu-ThDecC:  IPartSL=   20    0 NPrtUSL=   28    1 IThBeg=    0 IThEnd=   27 CPU=   -1 GPU=   -1 NThAct=   24.
 IPart=  1 NShTot=         145 NBatch=          29 AvBLen=         5.0
 PrsmSu-ThDecC:  IPartSL=    1    0 NPrtUSL=   28    1 IThBeg=    0 IThEnd=   27 CPU=   -1 GPU=   -1 NThAct=   23.
 IPart= 13 NShTot=          75 NBatch=          15 AvBLen=         5.0
 PrsmSu-ThDecC:  IPartSL=   13    0 NPrtUSL=   28    1 IThBeg=    0 IThEnd=   27 CPU=   -1 GPU=   -1 NThAct=   22.
 IPart= 10 NShTot=          80 NBatch=          16 AvBLen=         5.0
 PrsmSu-ThDecC:  IPartSL=   10    0 NPrtUSL=   28    1 IThBeg=    0 IThEnd=   27 CPU=   -1 GPU=   -1 NThAct=   21.
 IPart= 15 NShTot=          75 NBatch=          15 AvBLen=         5.0
 PrsmSu-ThDecC:  IPartSL=   15    0 NPrtUSL=   28    1 IThBeg=    0 IThEnd=   27 CPU=   -1 GPU=   -1 NThAct=   20.
 IPart= 19 NShTot=          65 NBatch=          13 AvBLen=         5.0
 PrsmSu-ThDecC:  IPartSL=   19    0 NPrtUSL=   28    1 IThBeg=    0 IThEnd=   27 CPU=   -1 GPU=   -1 NThAct=   19.
 IPart=  5 NShTot=          95 NBatch=          19 AvBLen=         5.0
 PrsmSu-ThDecC:  IPartSL=    5    0 NPrtUSL=   28    1 IThBeg=    0 IThEnd=   27 CPU=   -1 GPU=   -1 NThAct=   18.
 IPart=  3 NShTot=         115 NBatch=          23 AvBLen=         5.0
 PrsmSu-ThDecC:  IPartSL=    3    0 NPrtUSL=   28    1 IThBeg=    0 IThEnd=   27 CPU=   -1 GPU=   -1 NThAct=   17.
 IPart=  8 NShTot=          85 NBatch=          17 AvBLen=         5.0
 PrsmSu-ThDecC:  IPartSL=    8    0 NPrtUSL=   28    1 IThBeg=    0 IThEnd=   27 CPU=   -1 GPU=   -1 NThAct=   16.
 IPart=  7 NShTot=          90 NBatch=          18 AvBLen=         5.0
 PrsmSu-ThDecC:  IPartSL=    7    0 NPrtUSL=   28    1 IThBeg=    0 IThEnd=   27 CPU=   -1 GPU=   -1 NThAct=   15.
 IPart= 22 NShTot=          45 NBatch=           9 AvBLen=         5.0
 PrsmSu-ThDecC:  IPartSL=   22    0 NPrtUSL=   28    1 IThBeg=    0 IThEnd=   27 CPU=   -1 GPU=   -1 NThAct=   14.
 IPart= 18 NShTot=          70 NBatch=          14 AvBLen=         5.0
 PrsmSu-ThDecC:  IPartSL=   18    0 NPrtUSL=   28    1 IThBeg=    0 IThEnd=   27 CPU=   -1 GPU=   -1 NThAct=   13.
 IPart=  0 NShTot=         155 NBatch=          31 AvBLen=         5.0
 PrsmSu-ThDecC:  IPartSL=    0    0 NPrtUSL=   28    1 IThBeg=    0 IThEnd=   27 CPU=   -1 GPU=   -1 NThAct=   12.
 IPart= 23 NShTot=          45 NBatch=           9 AvBLen=         5.0
 PrsmSu-ThDecC:  IPartSL=   23    0 NPrtUSL=   28    1 IThBeg=    0 IThEnd=   27 CPU=   -1 GPU=   -1 NThAct=   11.
 IPart= 14 NShTot=          75 NBatch=          15 AvBLen=         5.0
 PrsmSu-ThDecC:  IPartSL=   14    0 NPrtUSL=   28    1 IThBeg=    0 IThEnd=   27 CPU=   -1 GPU=   -1 NThAct=   10.
 IPart= 16 NShTot=          70 NBatch=          14 AvBLen=         5.0
 PrsmSu-ThDecC:  IPartSL=   16    0 NPrtUSL=   28    1 IThBeg=    0 IThEnd=   27 CPU=   -1 GPU=   -1 NThAct=    9.
 IPart=  4 NShTot=          95 NBatch=          19 AvBLen=         5.0
 PrsmSu-ThDecC:  IPartSL=    4    0 NPrtUSL=   28    1 IThBeg=    0 IThEnd=   27 CPU=   -1 GPU=   -1 NThAct=    8.
 IPart=  6 NShTot=          90 NBatch=          18 AvBLen=         5.0
 PrsmSu-ThDecC:  IPartSL=    6    0 NPrtUSL=   28    1 IThBeg=    0 IThEnd=   27 CPU=   -1 GPU=   -1 NThAct=    7.
 IPart= 12 NShTot=          75 NBatch=          15 AvBLen=         5.0
 PrsmSu-ThDecC:  IPartSL=   12    0 NPrtUSL=   28    1 IThBeg=    0 IThEnd=   27 CPU=   -1 GPU=   -1 NThAct=    6.
 IPart= 26 NShTot=          45 NBatch=           9 AvBLen=         5.0
 PrsmSu-ThDecC:  IPartSL=   26    0 NPrtUSL=   28    1 IThBeg=    0 IThEnd=   27 CPU=   -1 GPU=   -1 NThAct=    5.
 IPart= 21 NShTot=          50 NBatch=          10 AvBLen=         5.0
 PrsmSu-ThDecC:  IPartSL=   21    0 NPrtUSL=   28    1 IThBeg=    0 IThEnd=   27 CPU=   -1 GPU=   -1 NThAct=    4.
 IPart= 27 NShTot=          35 NBatch=           7 AvBLen=         5.0
 PrsmSu-ThDecC:  IPartSL=   27    0 NPrtUSL=   28    1 IThBeg=    0 IThEnd=   27 CPU=   -1 GPU=   -1 NThAct=    3.
 IPart= 24 NShTot=          45 NBatch=           9 AvBLen=         5.0
 PrsmSu-ThDecC:  IPartSL=   24    0 NPrtUSL=   28    1 IThBeg=    0 IThEnd=   27 CPU=   -1 GPU=   -1 NThAct=    2.
 IPart= 25 NShTot=          45 NBatch=           9 AvBLen=         5.0
 PrsmSu-ThDecC:  IPartSL=   25    0 NPrtUSL=   28    1 IThBeg=    0 IThEnd=   27 CPU=   -1 GPU=   -1 NThAct=    1.
 PrSmSu:  NxtVal=             29.
 --------------------------------------------------------
       Center         ----      EFG at Nuclei      ----
                      3XX-RR        3YY-RR        3ZZ-RR
 --------------------------------------------------------
     1   Atom       -0.262186      0.107915      0.154271
     2   Atom       -0.000275      0.000015      0.000261
     3   Atom        0.155647     -0.180417      0.024770
     4   Atom        0.156945      0.145700     -0.302645
     5   Atom       -0.050818     -0.073018      0.123836
 --------------------------------------------------------
                        XY            XZ            YZ
 --------------------------------------------------------
     1   Atom       -0.156644      0.068749      0.025195
     2   Atom       -0.000001      0.000000     -0.000022
     3   Atom       -0.057432     -0.036611     -0.220326
     4   Atom       -0.012824      0.062605      0.095877
     5   Atom        0.226970     -0.094717      0.099471
 --------------------------------------------------------


 ---------------------------------------------------------------------------------
              Nuclear Quadrupole Coupling Constant in Principal Axis System
 ---------------------------------------------------------------------------------

       Atom             a.u.   MegaHertz   Gauss  10(-4) cm-1        Axes

              Baa    -0.0003     0.001     0.000     0.000  1.0000  0.0030 -0.0007
     2 N(14)  Bbb     0.0000    -0.000    -0.000    -0.000 -0.0029  0.9962  0.0874
              Bcc     0.0003    -0.001    -0.000    -0.000  0.0010 -0.0874  0.9962
 

 ---------------------------------------------------------------------------------

 No NMR shielding tensors so no spin-rotation constants.
 Leave Link  601 at Tue Feb 14 16:10:09 2023, MaxMem=  3758096384 cpu:               5.3 elap:               0.2
 FitSet:  NAtFit=     5 NAtPot=     5 NAtFrz=     0 MDM=     9 TotChg=   1.00000
 Merz-Kollman atomic radii used.
 Atom Element Radius
    1     1    1.20
    2     7    1.50
    3     1    1.20
    4     1    1.20
    5     1    1.20
 Generate VDW surfaces: Layer= 4 Dens= 6 Start= 1.400 Inc= 0.200

 **********************************************************************

            Electrostatic Properties Using The SCF Density

 **********************************************************************

       Atomic Center    1 is at   0.951190  0.348538 -0.152959
       Atomic Center    2 is at   0.000052  0.000090 -0.000048
       Atomic Center    3 is at  -0.142160 -0.855519 -0.545365
       Atomic Center    4 is at  -0.133113 -0.203822  0.995004
       Atomic Center    5 is at  -0.676283  0.710173 -0.296343
      ESP Fit Center    6 is at   1.791190  0.348538  1.301963
      ESP Fit Center    7 is at   1.678651  0.768538  1.301963
      ESP Fit Center    8 is at   1.371190  1.075999  1.301963
      ESP Fit Center    9 is at   1.678651 -0.071462  1.301963
      ESP Fit Center   10 is at   2.139130  0.348538  1.034980
      ESP Fit Center   11 is at   2.058911  0.777671  1.034980
      ESP Fit Center   12 is at   1.829088  1.148847  1.034980
      ESP Fit Center   13 is at   1.480700  1.411938  1.034980
      ESP Fit Center   14 is at   1.060799  1.531410  1.034980
      ESP Fit Center   15 is at   1.829088 -0.451772  1.034980
      ESP Fit Center   16 is at   2.058911 -0.080595  1.034980
      ESP Fit Center   17 is at   2.406113  0.348538  0.687041
      ESP Fit Center   18 is at   2.341475  0.777384  0.687041
      ESP Fit Center   19 is at   2.153304  1.168125  0.687041
      ESP Fit Center   20 is at   1.858320  1.486042  0.687041
      ESP Fit Center   21 is at   1.482733  1.702887  0.687041
      ESP Fit Center   22 is at   1.059917  1.799392  0.687041
      ESP Fit Center   23 is at   1.858320 -0.788967  0.687041
      ESP Fit Center   24 is at   2.153304 -0.471049  0.687041
      ESP Fit Center   25 is at   2.341475 -0.080308  0.687041
      ESP Fit Center   26 is at   2.573946  0.348538  0.281857
      ESP Fit Center   27 is at   2.518651  0.768538  0.281857
      ESP Fit Center   28 is at   2.356538  1.159916  0.281857
      ESP Fit Center   29 is at   2.098651  1.495999  0.281857
      ESP Fit Center   30 is at   1.762568  1.753885  0.281857
      ESP Fit Center   31 is at   1.371190  1.915999  0.281857
      ESP Fit Center   32 is at   0.951190  1.971293  0.281857
      ESP Fit Center   33 is at   2.098651 -0.798923  0.281857
      ESP Fit Center   34 is at   2.356538 -0.462840  0.281857
      ESP Fit Center   35 is at   2.518651 -0.071462  0.281857
      ESP Fit Center   36 is at   2.631190  0.348538 -0.152959
      ESP Fit Center   37 is at   2.578410  0.766337 -0.152959
      ESP Fit Center   38 is at   2.423385  1.157884 -0.152959
      ESP Fit Center   39 is at   2.175857  1.498577 -0.152959
      ESP Fit Center   40 is at   1.851379  1.767009 -0.152959
      ESP Fit Center   41 is at   1.470339  1.946313 -0.152959
      ESP Fit Center   42 is at   1.056678  2.025223 -0.152959
      ESP Fit Center   43 is at   0.636390  1.998780 -0.152959
      ESP Fit Center   44 is at   1.851379 -1.069933 -0.152959
      ESP Fit Center   45 is at   2.175857 -0.801501 -0.152959
      ESP Fit Center   46 is at   2.423385 -0.460808 -0.152959
      ESP Fit Center   47 is at   2.578410 -0.069261 -0.152959
      ESP Fit Center   48 is at   2.573946  0.348538 -0.587775
      ESP Fit Center   49 is at   2.518651  0.768538 -0.587775
      ESP Fit Center   50 is at   2.356538  1.159916 -0.587775
      ESP Fit Center   51 is at   2.098651  1.495999 -0.587775
      ESP Fit Center   52 is at   1.762568  1.753885 -0.587775
      ESP Fit Center   53 is at   1.371190  1.915999 -0.587775
      ESP Fit Center   54 is at   0.951190  1.971293 -0.587775
      ESP Fit Center   55 is at   1.762568 -1.056810 -0.587775
      ESP Fit Center   56 is at   2.098651 -0.798923 -0.587775
      ESP Fit Center   57 is at   2.356538 -0.462840 -0.587775
      ESP Fit Center   58 is at   2.518651 -0.071462 -0.587775
      ESP Fit Center   59 is at   2.406113  0.348538 -0.992959
      ESP Fit Center   60 is at   2.341475  0.777384 -0.992959
      ESP Fit Center   61 is at   2.153304  1.168125 -0.992959
      ESP Fit Center   62 is at   1.858320  1.486042 -0.992959
      ESP Fit Center   63 is at   1.482733  1.702887 -0.992959
      ESP Fit Center   64 is at   1.059917  1.799392 -0.992959
      ESP Fit Center   65 is at   0.627439  1.766983 -0.992959
      ESP Fit Center   66 is at   1.858320 -0.788967 -0.992959
      ESP Fit Center   67 is at   2.153304 -0.471049 -0.992959
      ESP Fit Center   68 is at   2.341475 -0.080308 -0.992959
      ESP Fit Center   69 is at   2.139130  0.348538 -1.340899
      ESP Fit Center   70 is at   2.058911  0.777671 -1.340899
      ESP Fit Center   71 is at   1.829088  1.148847 -1.340899
      ESP Fit Center   72 is at   1.480700  1.411938 -1.340899
      ESP Fit Center   73 is at   1.060799  1.531410 -1.340899
      ESP Fit Center   74 is at   0.626095  1.491128 -1.340899
      ESP Fit Center   75 is at   1.480700 -0.714862 -1.340899
      ESP Fit Center   76 is at   1.829088 -0.451772 -1.340899
      ESP Fit Center   77 is at   2.058911 -0.080595 -1.340899
      ESP Fit Center   78 is at   1.791190  0.348538 -1.607882
      ESP Fit Center   79 is at   1.678651  0.768538 -1.607882
      ESP Fit Center   80 is at   1.371190  1.075999 -1.607882
      ESP Fit Center   81 is at   0.951190  1.188538 -1.607882
      ESP Fit Center   82 is at   1.371190 -0.378923 -1.607882
      ESP Fit Center   83 is at   1.678651 -0.071462 -1.607882
      ESP Fit Center   84 is at   1.386006  0.348538 -1.775715
      ESP Fit Center   85 is at   1.168598  0.725100 -1.775715
      ESP Fit Center   86 is at   1.168598 -0.028024 -1.775715
      ESP Fit Center   87 is at   1.484976  0.000090  1.484876
      ESP Fit Center   88 is at   1.424827  0.418442  1.484876
      ESP Fit Center   89 is at   1.249250  0.802901  1.484876
      ESP Fit Center   90 is at   0.972471  1.122321  1.484876
      ESP Fit Center   91 is at   0.616912  1.350825  1.484876
      ESP Fit Center   92 is at   0.211379  1.469900  1.484876
      ESP Fit Center   93 is at  -0.211275  1.469900  1.484876
      ESP Fit Center   94 is at  -0.616808  1.350825  1.484876
      ESP Fit Center   95 is at   0.991942  1.437091  1.166649
      ESP Fit Center   96 is at   0.619223  1.632709  1.166649
      ESP Fit Center   97 is at   0.210520  1.733445  1.166649
      ESP Fit Center   98 is at  -0.210415  1.733445  1.166649
      ESP Fit Center   99 is at  -0.619119  1.632709  1.166649
      ESP Fit Center  100 is at  -1.546030  0.811537  1.166649
      ESP Fit Center  101 is at  -1.695296  0.417956  1.166649
      ESP Fit Center  102 is at   1.307016 -1.157779  1.166649
      ESP Fit Center  103 is at   1.546135 -0.811357  1.166649
      ESP Fit Center  104 is at   1.695400 -0.417776  1.166649
      ESP Fit Center  105 is at   0.519096  1.869519  0.803587
      ESP Fit Center  106 is at   0.105090  1.937392  0.803587
      ESP Fit Center  107 is at  -1.928722  0.209857  0.803587
      ESP Fit Center  108 is at  -1.928722 -0.209677  0.803587
      ESP Fit Center  109 is at  -1.838534 -0.619402  0.803587
      ESP Fit Center  110 is at  -1.662377 -1.000160  0.803587
      ESP Fit Center  111 is at  -1.408486 -1.334148  0.803587
      ESP Fit Center  112 is at  -1.088733 -1.605748  0.803587
      ESP Fit Center  113 is at  -0.718070 -1.802261  0.803587
      ESP Fit Center  114 is at  -0.313829 -1.914499  0.803587
      ESP Fit Center  115 is at   0.105090 -1.937212  0.803587
      ESP Fit Center  116 is at   0.519096 -1.869339  0.803587
      ESP Fit Center  117 is at   0.908833 -1.714053  0.803587
      ESP Fit Center  118 is at   1.256077 -1.478616  0.803587
      ESP Fit Center  119 is at   1.544590 -1.174037  0.803587
      ESP Fit Center  120 is at   1.760882 -0.814557  0.803587
      ESP Fit Center  121 is at   0.715379  1.931530  0.409642
      ESP Fit Center  122 is at   0.311940  2.035988  0.409642
      ESP Fit Center  123 is at  -2.049030 -0.208281  0.409642
      ESP Fit Center  124 is at  -1.965140 -0.616493  0.409642
      ESP Fit Center  125 is at  -1.800795 -0.999462  0.409642
      ESP Fit Center  126 is at  -1.562723 -1.341509  0.409642
      ESP Fit Center  127 is at   1.089532 -1.747819  0.409642
      ESP Fit Center  128 is at   1.419082 -1.492729  0.409642
      ESP Fit Center  129 is at   1.690537 -1.176522  0.409642
      ESP Fit Center  130 is at   0.409742  2.059739 -0.000048
      ESP Fit Center  131 is at  -2.059597 -0.409600 -0.000048
      ESP Fit Center  132 is at  -1.940095 -0.803545 -0.000048
      ESP Fit Center  133 is at  -1.746034 -1.166607 -0.000048
      ESP Fit Center  134 is at   1.484976 -1.484834 -0.000048
      ESP Fit Center  135 is at   1.746138 -1.166607 -0.000048
      ESP Fit Center  136 is at  -1.965140 -0.616493 -0.409738
      ESP Fit Center  137 is at   1.419082 -1.492729 -0.409738
      ESP Fit Center  138 is at   1.690537 -1.176522 -0.409738
      ESP Fit Center  139 is at   0.519096  1.869519 -0.803683
      ESP Fit Center  140 is at  -1.838534 -0.619402 -0.803683
      ESP Fit Center  141 is at   1.544590 -1.174037 -0.803683
      ESP Fit Center  142 is at  -1.695296 -0.417776 -1.166746
      ESP Fit Center  143 is at   0.616912  1.350825 -1.484972
      ESP Fit Center  144 is at   0.520094  1.044475 -1.746134
      ESP Fit Center  145 is at   0.107701  1.161811 -1.746134
      ESP Fit Center  146 is at  -1.146780 -0.214290 -1.746134
      ESP Fit Center  147 is at   1.087965 -0.421370 -1.746134
      ESP Fit Center  148 is at   0.803687  0.000090 -1.940195
      ESP Fit Center  149 is at   0.696021  0.401908 -1.940195
      ESP Fit Center  150 is at   0.401870  0.696059 -1.940195
      ESP Fit Center  151 is at   0.000052  0.803725 -1.940195
      ESP Fit Center  152 is at  -0.803583  0.000090 -1.940195
      ESP Fit Center  153 is at   0.696021 -0.401728 -1.940195
      ESP Fit Center  154 is at   0.409742  0.000090 -2.059697
      ESP Fit Center  155 is at   0.204897  0.354892 -2.059697
      ESP Fit Center  156 is at  -0.204793  0.354892 -2.059697
      ESP Fit Center  157 is at  -0.409638  0.000090 -2.059697
      ESP Fit Center  158 is at   0.000052  0.000090 -2.100048
      ESP Fit Center  159 is at  -0.467255 -1.998110  0.642574
      ESP Fit Center  160 is at  -0.032551 -2.038391  0.642574
      ESP Fit Center  161 is at  -1.208694 -1.845118  0.294635
      ESP Fit Center  162 is at  -0.869621 -2.115519  0.294635
      ESP Fit Center  163 is at  -0.465911 -2.273964  0.294635
      ESP Fit Center  164 is at  -0.033433 -2.306374  0.294635
      ESP Fit Center  165 is at   0.389383 -2.209868  0.294635
      ESP Fit Center  166 is at   0.764970 -1.993023  0.294635
      ESP Fit Center  167 is at  -1.709621 -1.275519 -0.110549
      ESP Fit Center  168 is at  -1.547507 -1.666897 -0.110549
      ESP Fit Center  169 is at  -1.289621 -2.002980 -0.110549
      ESP Fit Center  170 is at  -0.953538 -2.260867 -0.110549
      ESP Fit Center  171 is at  -0.562160 -2.422980 -0.110549
      ESP Fit Center  172 is at  -0.142160 -2.478275 -0.110549
      ESP Fit Center  173 is at   0.277840 -2.422980 -0.110549
      ESP Fit Center  174 is at   0.669218 -2.260867 -0.110549
      ESP Fit Center  175 is at   1.005301 -2.002980 -0.110549
      ESP Fit Center  176 is at  -1.808913 -1.066079 -0.545365
      ESP Fit Center  177 is at  -1.704184 -1.473968 -0.545365
      ESP Fit Center  178 is at  -1.501308 -1.842998 -0.545365
      ESP Fit Center  179 is at  -1.213032 -2.149981 -0.545365
      ESP Fit Center  180 is at  -0.857469 -2.375629 -0.545365
      ESP Fit Center  181 is at  -0.456960 -2.505762 -0.545365
      ESP Fit Center  182 is at  -0.036672 -2.532204 -0.545365
      ESP Fit Center  183 is at   0.376989 -2.453294 -0.545365
      ESP Fit Center  184 is at   0.758029 -2.273990 -0.545365
      ESP Fit Center  185 is at   1.082507 -2.005558 -0.545365
      ESP Fit Center  186 is at   1.330035 -1.664865 -0.545365
      ESP Fit Center  187 is at  -1.764915 -0.855519 -0.980181
      ESP Fit Center  188 is at  -1.709621 -1.275519 -0.980181
      ESP Fit Center  189 is at  -1.547507 -1.666897 -0.980181
      ESP Fit Center  190 is at  -1.289621 -2.002980 -0.980181
      ESP Fit Center  191 is at  -0.953538 -2.260867 -0.980181
      ESP Fit Center  192 is at  -0.562160 -2.422980 -0.980181
      ESP Fit Center  193 is at  -0.142160 -2.478275 -0.980181
      ESP Fit Center  194 is at   0.277840 -2.422980 -0.980181
      ESP Fit Center  195 is at   0.669218 -2.260867 -0.980181
      ESP Fit Center  196 is at   1.005301 -2.002980 -0.980181
      ESP Fit Center  197 is at   1.263188 -1.666897 -0.980181
      ESP Fit Center  198 is at   1.425301 -1.275519 -0.980181
      ESP Fit Center  199 is at  -1.580832 -0.638674 -1.385365
      ESP Fit Center  200 is at  -1.580832 -1.072364 -1.385365
      ESP Fit Center  201 is at  -1.453000 -1.486786 -1.385365
      ESP Fit Center  202 is at  -1.208694 -1.845118 -1.385365
      ESP Fit Center  203 is at  -0.869621 -2.115519 -1.385365
      ESP Fit Center  204 is at  -0.465911 -2.273964 -1.385365
      ESP Fit Center  205 is at  -0.033433 -2.306374 -1.385365
      ESP Fit Center  206 is at   0.389383 -2.209868 -1.385365
      ESP Fit Center  207 is at   0.764970 -1.993023 -1.385365
      ESP Fit Center  208 is at   1.059954 -1.675106 -1.385365
      ESP Fit Center  209 is at   1.248125 -1.284365 -1.385365
      ESP Fit Center  210 is at   1.045780 -0.855519 -1.733304
      ESP Fit Center  211 is at  -1.309872 -0.637236 -1.733304
      ESP Fit Center  212 is at  -1.309872 -1.073802 -1.733304
      ESP Fit Center  213 is at  -1.152166 -1.480889 -1.733304
      ESP Fit Center  214 is at  -0.858053 -1.803515 -1.733304
      ESP Fit Center  215 is at  -0.467255 -1.998110 -1.733304
      ESP Fit Center  216 is at  -0.032551 -2.038391 -1.733304
      ESP Fit Center  217 is at   0.387350 -1.918919 -1.733304
      ESP Fit Center  218 is at   0.735738 -1.655829 -1.733304
      ESP Fit Center  219 is at   0.965561 -1.284652 -1.733304
      ESP Fit Center  220 is at   0.697840 -0.855519 -2.000288
      ESP Fit Center  221 is at   0.585301 -0.435519 -2.000288
      ESP Fit Center  222 is at  -0.869621 -0.435519 -2.000288
      ESP Fit Center  223 is at  -0.982160 -0.855519 -2.000288
      ESP Fit Center  224 is at  -0.869621 -1.275519 -2.000288
      ESP Fit Center  225 is at  -0.562160 -1.582980 -2.000288
      ESP Fit Center  226 is at  -0.142160 -1.695519 -2.000288
      ESP Fit Center  227 is at   0.277840 -1.582980 -2.000288
      ESP Fit Center  228 is at   0.585301 -1.275519 -2.000288
      ESP Fit Center  229 is at   0.292656 -0.855519 -2.168120
      ESP Fit Center  230 is at   0.075248 -0.478957 -2.168120
      ESP Fit Center  231 is at  -0.359568 -0.478957 -2.168120
      ESP Fit Center  232 is at  -0.576976 -0.855519 -2.168120
      ESP Fit Center  233 is at  -0.359568 -1.232081 -2.168120
      ESP Fit Center  234 is at   0.075248 -1.232081 -2.168120
      ESP Fit Center  235 is at  -0.142160 -0.855519 -2.225365
      ESP Fit Center  236 is at  -0.133113 -0.203822  2.675004
      ESP Fit Center  237 is at   0.301703 -0.203822  2.617759
      ESP Fit Center  238 is at   0.084295  0.172740  2.617759
      ESP Fit Center  239 is at  -0.350521  0.172740  2.617759
      ESP Fit Center  240 is at  -0.567929 -0.203822  2.617759
      ESP Fit Center  241 is at  -0.350521 -0.580383  2.617759
      ESP Fit Center  242 is at   0.084295 -0.580383  2.617759
      ESP Fit Center  243 is at   0.706887 -0.203822  2.449927
      ESP Fit Center  244 is at   0.594349  0.216178  2.449927
      ESP Fit Center  245 is at   0.286887  0.523640  2.449927
      ESP Fit Center  246 is at  -0.133113  0.636178  2.449927
      ESP Fit Center  247 is at  -0.553113  0.523640  2.449927
      ESP Fit Center  248 is at  -0.860574  0.216178  2.449927
      ESP Fit Center  249 is at  -0.973113 -0.203822  2.449927
      ESP Fit Center  250 is at  -0.860574 -0.623822  2.449927
      ESP Fit Center  251 is at  -0.553113 -0.931283  2.449927
      ESP Fit Center  252 is at  -0.133113 -1.043822  2.449927
      ESP Fit Center  253 is at   0.286887 -0.931283  2.449927
      ESP Fit Center  254 is at   0.594349 -0.623822  2.449927
      ESP Fit Center  255 is at   1.054827 -0.203822  2.182943
      ESP Fit Center  256 is at   0.974608  0.225312  2.182943
      ESP Fit Center  257 is at   0.744785  0.596488  2.182943
      ESP Fit Center  258 is at   0.396398  0.859578  2.182943
      ESP Fit Center  259 is at  -0.023503  0.979050  2.182943
      ESP Fit Center  260 is at  -0.458208  0.938769  2.182943
      ESP Fit Center  261 is at  -0.849006  0.744175  2.182943
      ESP Fit Center  262 is at  -1.143119  0.421548  2.182943
      ESP Fit Center  263 is at  -1.300825  0.014462  2.182943
      ESP Fit Center  264 is at  -1.300825 -0.422105  2.182943
      ESP Fit Center  265 is at  -1.143119 -0.829191  2.182943
      ESP Fit Center  266 is at  -0.849006 -1.151818  2.182943
      ESP Fit Center  267 is at  -0.458208 -1.346412  2.182943
      ESP Fit Center  268 is at  -0.023503 -1.386693  2.182943
      ESP Fit Center  269 is at   0.396398 -1.267221  2.182943
      ESP Fit Center  270 is at   0.744785 -1.004131  2.182943
      ESP Fit Center  271 is at   0.974608 -0.632955  2.182943
      ESP Fit Center  272 is at   1.321810 -0.203822  1.835004
      ESP Fit Center  273 is at   1.257172  0.225024  1.835004
      ESP Fit Center  274 is at   1.069001  0.615766  1.835004
      ESP Fit Center  275 is at   0.774017  0.933683  1.835004
      ESP Fit Center  276 is at   0.398430  1.150528  1.835004
      ESP Fit Center  277 is at  -0.024386  1.247033  1.835004
      ESP Fit Center  278 is at  -0.456863  1.214623  1.835004
      ESP Fit Center  279 is at  -0.860574  1.056178  1.835004
      ESP Fit Center  280 is at  -1.199646  0.785777  1.835004
      ESP Fit Center  281 is at  -1.443953  0.427446  1.835004
      ESP Fit Center  282 is at  -1.571785  0.013023  1.835004
      ESP Fit Center  283 is at  -1.571785 -0.420667  1.835004
      ESP Fit Center  284 is at  -1.443953 -0.835089  1.835004
      ESP Fit Center  285 is at  -1.199646 -1.193420  1.835004
      ESP Fit Center  286 is at  -0.860574 -1.463822  1.835004
      ESP Fit Center  287 is at  -0.456863 -1.622266  1.835004
      ESP Fit Center  288 is at  -0.024386 -1.654676  1.835004
      ESP Fit Center  289 is at   0.398430 -1.558171  1.835004
      ESP Fit Center  290 is at   0.774017 -1.341326  1.835004
      ESP Fit Center  291 is at   1.069001 -1.023409  1.835004
      ESP Fit Center  292 is at   1.257172 -0.632668  1.835004
      ESP Fit Center  293 is at  -1.280574  0.943640  1.429820
      ESP Fit Center  294 is at  -1.538460  0.607556  1.429820
      ESP Fit Center  295 is at  -1.700574  0.216178  1.429820
      ESP Fit Center  296 is at  -1.755868 -0.203822  1.429820
      ESP Fit Center  297 is at  -1.700574 -0.623822  1.429820
      ESP Fit Center  298 is at  -1.538460 -1.015199  1.429820
      ESP Fit Center  299 is at  -1.280574 -1.351283  1.429820
      ESP Fit Center  300 is at  -0.944490 -1.609169  1.429820
      ESP Fit Center  301 is at  -0.553113 -1.771283  1.429820
      ESP Fit Center  302 is at  -0.133113 -1.826577  1.429820
      ESP Fit Center  303 is at   0.286887 -1.771283  1.429820
      ESP Fit Center  304 is at   0.678265 -1.609169  1.429820
      ESP Fit Center  305 is at   1.014349 -1.351283  1.429820
      ESP Fit Center  306 is at   1.272235 -1.015199  1.429820
      ESP Fit Center  307 is at   1.434349 -0.623822  1.429820
      ESP Fit Center  308 is at  -1.695137 -0.822271  0.995004
      ESP Fit Center  309 is at  -1.492261 -1.191301  0.995004
      ESP Fit Center  310 is at  -1.203985 -1.498284  0.995004
      ESP Fit Center  311 is at  -0.848422 -1.723931  0.995004
      ESP Fit Center  312 is at  -0.447913 -1.854064  0.995004
      ESP Fit Center  313 is at  -0.027624 -1.880506  0.995004
      ESP Fit Center  314 is at  -1.096283  1.437634  1.158579
      ESP Fit Center  315 is at  -1.403744  1.130173  1.158579
      ESP Fit Center  316 is at  -0.566674  1.893044  0.891596
      ESP Fit Center  317 is at  -1.001378  1.852763  0.891596
      ESP Fit Center  318 is at  -1.392176  1.658169  0.891596
      ESP Fit Center  319 is at  -1.686289  1.335542  0.891596
      ESP Fit Center  320 is at  -1.843995  0.928456  0.891596
      ESP Fit Center  321 is at  -1.843995  0.491889  0.891596
      ESP Fit Center  322 is at  -0.144740  2.064522  0.543657
      ESP Fit Center  323 is at  -0.567556  2.161027  0.543657
      ESP Fit Center  324 is at  -1.000034  2.128617  0.543657
      ESP Fit Center  325 is at  -1.403744  1.970173  0.543657
      ESP Fit Center  326 is at  -1.742817  1.699771  0.543657
      ESP Fit Center  327 is at  -1.987123  1.341440  0.543657
      ESP Fit Center  328 is at  -2.114955  0.927018  0.543657
      ESP Fit Center  329 is at  -2.114955  0.493328  0.543657
      ESP Fit Center  330 is at   0.135095  2.115520  0.138473
      ESP Fit Center  331 is at  -0.256283  2.277634  0.138473
      ESP Fit Center  332 is at  -0.676283  2.332928  0.138473
      ESP Fit Center  333 is at  -1.096283  2.277634  0.138473
      ESP Fit Center  334 is at  -1.487660  2.115520  0.138473
      ESP Fit Center  335 is at  -1.823744  1.857634  0.138473
      ESP Fit Center  336 is at  -2.081630  1.521550  0.138473
      ESP Fit Center  337 is at  -2.243744  1.130173  0.138473
      ESP Fit Center  338 is at  -2.299038  0.710173  0.138473
      ESP Fit Center  339 is at  -2.243744  0.290173  0.138473
      ESP Fit Center  340 is at   0.223906  2.128644 -0.296343
      ESP Fit Center  341 is at  -0.157134  2.307948 -0.296343
      ESP Fit Center  342 is at  -0.570795  2.386857 -0.296343
      ESP Fit Center  343 is at  -0.991083  2.360415 -0.296343
      ESP Fit Center  344 is at  -1.391592  2.230282 -0.296343
      ESP Fit Center  345 is at  -1.747155  2.004635 -0.296343
      ESP Fit Center  346 is at  -2.035431  1.697652 -0.296343
      ESP Fit Center  347 is at  -2.238307  1.328622 -0.296343
      ESP Fit Center  348 is at  -2.343035  0.920732 -0.296343
      ESP Fit Center  349 is at  -2.343035  0.499613 -0.296343
      ESP Fit Center  350 is at  -2.238307  0.091723 -0.296343
      ESP Fit Center  351 is at   0.135095  2.115520 -0.731159
      ESP Fit Center  352 is at  -0.256283  2.277634 -0.731159
      ESP Fit Center  353 is at  -0.676283  2.332928 -0.731159
      ESP Fit Center  354 is at  -1.096283  2.277634 -0.731159
      ESP Fit Center  355 is at  -1.487660  2.115520 -0.731159
      ESP Fit Center  356 is at  -1.823744  1.857634 -0.731159
      ESP Fit Center  357 is at  -2.081630  1.521550 -0.731159
      ESP Fit Center  358 is at  -2.243744  1.130173 -0.731159
      ESP Fit Center  359 is at  -2.299038  0.710173 -0.731159
      ESP Fit Center  360 is at  -2.243744  0.290173 -0.731159
      ESP Fit Center  361 is at  -2.081630 -0.101205 -0.731159
      ESP Fit Center  362 is at   0.230847  1.847677 -1.136343
      ESP Fit Center  363 is at  -0.144740  2.064522 -1.136343
      ESP Fit Center  364 is at  -0.567556  2.161027 -1.136343
      ESP Fit Center  365 is at  -1.000034  2.128617 -1.136343
      ESP Fit Center  366 is at  -1.403744  1.970173 -1.136343
      ESP Fit Center  367 is at  -1.742817  1.699771 -1.136343
      ESP Fit Center  368 is at  -1.987123  1.341440 -1.136343
      ESP Fit Center  369 is at  -2.114955  0.927018 -1.136343
      ESP Fit Center  370 is at  -2.114955  0.493328 -1.136343
      ESP Fit Center  371 is at  -1.987123  0.078905 -1.136343
      ESP Fit Center  372 is at   0.201615  1.510482 -1.484283
      ESP Fit Center  373 is at  -0.146773  1.773572 -1.484283
      ESP Fit Center  374 is at  -0.566674  1.893044 -1.484283
      ESP Fit Center  375 is at  -1.001378  1.852763 -1.484283
      ESP Fit Center  376 is at  -1.392176  1.658169 -1.484283
      ESP Fit Center  377 is at  -1.686289  1.335542 -1.484283
      ESP Fit Center  378 is at  -1.843995  0.928456 -1.484283
      ESP Fit Center  379 is at  -1.843995  0.491889 -1.484283
      ESP Fit Center  380 is at  -1.686289  0.084803 -1.484283
      ESP Fit Center  381 is at  -0.256283  1.437634 -1.751266
      ESP Fit Center  382 is at  -0.676283  1.550173 -1.751266
      ESP Fit Center  383 is at  -1.096283  1.437634 -1.751266
      ESP Fit Center  384 is at  -1.403744  1.130173 -1.751266
      ESP Fit Center  385 is at  -1.516283  0.710173 -1.751266
      ESP Fit Center  386 is at  -1.403744  0.290173 -1.751266
      ESP Fit Center  387 is at  -0.458875  1.086734 -1.919099
      ESP Fit Center  388 is at  -0.893691  1.086734 -1.919099
      ESP Fit Center  389 is at  -1.111099  0.710173 -1.919099
      ESP Fit Center  390 is at  -0.893691  0.333611 -1.919099
      ESP Fit Center  391 is at  -0.676283  0.710173 -1.976343
      ESP Fit Center  392 is at   1.784247  0.348538  1.576901
      ESP Fit Center  393 is at   1.672638  0.765066  1.576901
      ESP Fit Center  394 is at   2.148291  0.348538  1.348157
      ESP Fit Center  395 is at   2.076097  0.757970  1.348157
      ESP Fit Center  396 is at   1.868222  1.118019  1.348157
      ESP Fit Center  397 is at   1.549740  1.385257  1.348157
      ESP Fit Center  398 is at   2.076097 -0.060895  1.348157
      ESP Fit Center  399 is at   2.452307  0.348538  1.044141
      ESP Fit Center  400 is at   2.391501  0.771451  1.044141
      ESP Fit Center  401 is at   2.214010  1.160103  1.044141
      ESP Fit Center  402 is at   1.934212  1.483006  1.044141
      ESP Fit Center  403 is at   1.574776  1.714001  1.044141
      ESP Fit Center  404 is at   1.164821  1.834375  1.044141
      ESP Fit Center  405 is at   2.214010 -0.463027  1.044141
      ESP Fit Center  406 is at   2.391501 -0.074376  1.044141
      ESP Fit Center  407 is at   2.681050  0.348538  0.680097
      ESP Fit Center  408 is at   2.630784  0.762521  0.680097
      ESP Fit Center  409 is at   2.482905  1.152444  0.680097
      ESP Fit Center  410 is at   2.246009  1.495647  0.680097
      ESP Fit Center  411 is at   1.933863  1.772185  0.680097
      ESP Fit Center  412 is at   1.564607  1.965985  0.680097
      ESP Fit Center  413 is at   1.159702  2.065785  0.680097
      ESP Fit Center  414 is at   2.246009 -0.798572  0.680097
      ESP Fit Center  415 is at   2.482905 -0.455368  0.680097
      ESP Fit Center  416 is at   2.630784 -0.065445  0.680097
      ESP Fit Center  417 is at   2.823052  0.348538  0.274281
      ESP Fit Center  418 is at   2.776120  0.765066  0.274281
      ESP Fit Center  419 is at   2.637679  1.160708  0.274281
      ESP Fit Center  420 is at   2.414670  1.515624  0.274281
      ESP Fit Center  421 is at   2.118277  1.812018  0.274281
      ESP Fit Center  422 is at   1.763360  2.035027  0.274281
      ESP Fit Center  423 is at   1.367719  2.173468  0.274281
      ESP Fit Center  424 is at   0.951190  2.220399  0.274281
      ESP Fit Center  425 is at   2.118277 -1.114942  0.274281
      ESP Fit Center  426 is at   2.414670 -0.818549  0.274281
      ESP Fit Center  427 is at   2.637679 -0.463632  0.274281
      ESP Fit Center  428 is at   2.776120 -0.067991  0.274281
      ESP Fit Center  429 is at   2.871190  0.348538 -0.152959
      ESP Fit Center  430 is at   2.826302  0.761281 -0.152959
      ESP Fit Center  431 is at   2.693735  1.154725 -0.152959
      ESP Fit Center  432 is at   2.479689  1.510472 -0.152959
      ESP Fit Center  433 is at   2.194172  1.811889 -0.152959
      ESP Fit Center  434 is at   1.850534  2.044881 -0.152959
      ESP Fit Center  435 is at   1.464845  2.198554 -0.152959
      ESP Fit Center  436 is at   1.055137  2.265722 -0.152959
      ESP Fit Center  437 is at   2.194172 -1.114813 -0.152959
      ESP Fit Center  438 is at   2.479689 -0.813397 -0.152959
      ESP Fit Center  439 is at   2.693735 -0.457649 -0.152959
      ESP Fit Center  440 is at   2.826302 -0.064205 -0.152959
      ESP Fit Center  441 is at   2.823052  0.348538 -0.580200
      ESP Fit Center  442 is at   2.776120  0.765066 -0.580200
      ESP Fit Center  443 is at   2.637679  1.160708 -0.580200
      ESP Fit Center  444 is at   2.414670  1.515624 -0.580200
      ESP Fit Center  445 is at   2.118277  1.812018 -0.580200
      ESP Fit Center  446 is at   1.763360  2.035027 -0.580200
      ESP Fit Center  447 is at   1.367719  2.173468 -0.580200
      ESP Fit Center  448 is at   0.951190  2.220399 -0.580200
      ESP Fit Center  449 is at   2.118277 -1.114942 -0.580200
      ESP Fit Center  450 is at   2.414670 -0.818549 -0.580200
      ESP Fit Center  451 is at   2.637679 -0.463632 -0.580200
      ESP Fit Center  452 is at   2.776120 -0.067991 -0.580200
      ESP Fit Center  453 is at   2.681050  0.348538 -0.986016
      ESP Fit Center  454 is at   2.630784  0.762521 -0.986016
      ESP Fit Center  455 is at   2.482905  1.152444 -0.986016
      ESP Fit Center  456 is at   2.246009  1.495647 -0.986016
      ESP Fit Center  457 is at   1.933863  1.772185 -0.986016
      ESP Fit Center  458 is at   1.564607  1.965985 -0.986016
      ESP Fit Center  459 is at   1.159702  2.065785 -0.986016
      ESP Fit Center  460 is at   0.742679  2.065785 -0.986016
      ESP Fit Center  461 is at   1.933863 -1.075109 -0.986016
      ESP Fit Center  462 is at   2.246009 -0.798572 -0.986016
      ESP Fit Center  463 is at   2.482905 -0.455368 -0.986016
      ESP Fit Center  464 is at   2.630784 -0.065445 -0.986016
      ESP Fit Center  465 is at   2.452307  0.348538 -1.350060
      ESP Fit Center  466 is at   2.391501  0.771451 -1.350060
      ESP Fit Center  467 is at   2.214010  1.160103 -1.350060
      ESP Fit Center  468 is at   1.934212  1.483006 -1.350060
      ESP Fit Center  469 is at   1.574776  1.714001 -1.350060
      ESP Fit Center  470 is at   1.164821  1.834375 -1.350060
      ESP Fit Center  471 is at   1.934212 -0.785930 -1.350060
      ESP Fit Center  472 is at   2.214010 -0.463027 -1.350060
      ESP Fit Center  473 is at   2.391501 -0.074376 -1.350060
      ESP Fit Center  474 is at   2.148291  0.348538 -1.654076
      ESP Fit Center  475 is at   2.076097  0.757970 -1.654076
      ESP Fit Center  476 is at   1.868222  1.118019 -1.654076
      ESP Fit Center  477 is at   1.549740  1.385257 -1.654076
      ESP Fit Center  478 is at   1.159064  1.527452 -1.654076
      ESP Fit Center  479 is at   1.868222 -0.420943 -1.654076
      ESP Fit Center  480 is at   2.076097 -0.060895 -1.654076
      ESP Fit Center  481 is at   1.784247  0.348538 -1.882820
      ESP Fit Center  482 is at   1.672638  0.765066 -1.882820
      ESP Fit Center  483 is at   1.367719  1.069986 -1.882820
      ESP Fit Center  484 is at   0.951190  1.181595 -1.882820
      ESP Fit Center  485 is at   1.672638 -0.067991 -1.882820
      ESP Fit Center  486 is at   1.378430  0.348538 -2.024821
      ESP Fit Center  487 is at   1.164810  0.718539 -2.024821
      ESP Fit Center  488 is at   1.485535  0.416303  1.838459
      ESP Fit Center  489 is at   1.318157  0.801647  1.838459
      ESP Fit Center  490 is at   1.053020  1.127544  1.838459
      ESP Fit Center  491 is at   0.709790  1.369822  1.838459
      ESP Fit Center  492 is at   0.313922  1.510514  1.838459
      ESP Fit Center  493 is at  -0.105225  1.539184  1.838459
      ESP Fit Center  494 is at   1.838559  0.000090  1.542642
      ESP Fit Center  495 is at   1.408430  1.181859  1.542642
      ESP Fit Center  496 is at   1.097932  1.474799  1.542642
      ESP Fit Center  497 is at   0.728247  1.688236  1.542642
      ESP Fit Center  498 is at   0.319305  1.810666  1.542642
      ESP Fit Center  499 is at  -0.106847  1.835486  1.542642
      ESP Fit Center  500 is at  -0.527237  1.761360  1.542642
      ESP Fit Center  501 is at  -0.919201  1.592284  1.542642
      ESP Fit Center  502 is at  -1.261608  1.337371  1.542642
      ESP Fit Center  503 is at  -1.535998  1.010366  1.542642
      ESP Fit Center  504 is at   1.643002 -0.825030  1.542642
      ESP Fit Center  505 is at   1.789002 -0.423899  1.542642
      ESP Fit Center  506 is at   1.099483  1.763964  1.199952
      ESP Fit Center  507 is at   0.721913  1.949171  1.199952
      ESP Fit Center  508 is at   0.314789  2.054583  1.199952
      ESP Fit Center  509 is at  -0.105220  2.075883  1.199952
      ESP Fit Center  510 is at  -0.520919  2.012201  1.199952
      ESP Fit Center  511 is at  -1.983089  0.622305  1.199952
      ESP Fit Center  512 is at  -2.067745  0.210364  1.199952
      ESP Fit Center  513 is at  -2.067745 -0.210184  1.199952
      ESP Fit Center  514 is at   0.721913 -1.948991  1.199952
      ESP Fit Center  515 is at   1.099483 -1.763784  1.199952
      ESP Fit Center  516 is at   1.432043 -1.506363  1.199952
      ESP Fit Center  517 is at   1.705977 -1.187269  1.199952
      ESP Fit Center  518 is at   1.910070 -0.819563  1.199952
      ESP Fit Center  519 is at   0.936922  2.051549  0.820800
      ESP Fit Center  520 is at   0.531750  2.191780  0.820800
      ESP Fit Center  521 is at   0.107362  2.252798  0.820800
      ESP Fit Center  522 is at  -0.320905  2.232397  0.820800
      ESP Fit Center  523 is at  -2.244998  0.214466  0.820800
      ESP Fit Center  524 is at  -2.244998 -0.214286  0.820800
      ESP Fit Center  525 is at  -2.163856 -0.635291  0.820800
      ESP Fit Center  526 is at  -2.004505 -1.033331  0.820800
      ESP Fit Center  527 is at  -1.772704 -1.394021  0.820800
      ESP Fit Center  528 is at  -1.476831 -1.704323  0.820800
      ESP Fit Center  529 is at  -1.127579 -1.953024  0.820800
      ESP Fit Center  530 is at  -0.737572 -2.131135  0.820800
      ESP Fit Center  531 is at  -0.320905 -2.232217  0.820800
      ESP Fit Center  532 is at   0.107362 -2.252618  0.820800
      ESP Fit Center  533 is at   0.531750 -2.191600  0.820800
      ESP Fit Center  534 is at   0.936922 -2.051369  0.820800
      ESP Fit Center  535 is at   1.308233 -1.836992  0.820800
      ESP Fit Center  536 is at   1.632262 -1.556219  0.820800
      ESP Fit Center  537 is at   1.897300 -1.219197  0.820800
      ESP Fit Center  538 is at   0.730426  2.247949  0.416708
      ESP Fit Center  539 is at   0.317318  2.342238  0.416708
      ESP Fit Center  540 is at  -2.353972 -0.211776  0.416708
      ESP Fit Center  541 is at  -2.278311 -0.628698  0.416708
      ESP Fit Center  542 is at  -2.129423 -1.025411  0.416708
      ESP Fit Center  543 is at  -1.912091 -1.389163  0.416708
      ESP Fit Center  544 is at  -1.633301 -1.708264  0.416708
      ESP Fit Center  545 is at   1.120059 -2.081232  0.416708
      ESP Fit Center  546 is at   1.473694 -1.847799  0.416708
      ESP Fit Center  547 is at   1.779966 -1.554974  0.416708
      ESP Fit Center  548 is at   2.029029 -1.212167  0.416708
      ESP Fit Center  549 is at   0.416808  2.363629 -0.000048
      ESP Fit Center  550 is at  -2.363486 -0.416666 -0.000048
      ESP Fit Center  551 is at  -2.255210 -0.820758 -0.000048
      ESP Fit Center  552 is at  -2.078409 -1.199910 -0.000048
      ESP Fit Center  553 is at   1.542742 -1.838417 -0.000048
      ESP Fit Center  554 is at   1.838559 -1.542600 -0.000048
      ESP Fit Center  555 is at   2.078513 -1.199910 -0.000048
      ESP Fit Center  556 is at   0.730426  2.247949 -0.416804
      ESP Fit Center  557 is at  -2.278311 -0.628698 -0.416804
      ESP Fit Center  558 is at  -2.129423 -1.025411 -0.416804
      ESP Fit Center  559 is at   1.779966 -1.554974 -0.416804
      ESP Fit Center  560 is at   0.531750  2.191780 -0.820896
      ESP Fit Center  561 is at  -2.163856 -0.635291 -0.820896
      ESP Fit Center  562 is at   1.632262 -1.556219 -0.820896
      ESP Fit Center  563 is at   1.897300 -1.219197 -0.820896
      ESP Fit Center  564 is at   0.721913  1.949171 -1.200048
      ESP Fit Center  565 is at  -1.983089 -0.622125 -1.200048
      ESP Fit Center  566 is at   1.705977 -1.187269 -1.200048
      ESP Fit Center  567 is at   0.728247  1.688236 -1.542738
      ESP Fit Center  568 is at   0.319305  1.810666 -1.542738
      ESP Fit Center  569 is at  -1.826023 -0.213348 -1.542738
      ESP Fit Center  570 is at   1.643002 -0.825030 -1.542738
      ESP Fit Center  571 is at   0.709790  1.369822 -1.838555
      ESP Fit Center  572 is at   0.313922  1.510514 -1.838555
      ESP Fit Center  573 is at  -1.528269 -0.209973 -1.838555
      ESP Fit Center  574 is at   1.318157 -0.801467 -1.838555
      ESP Fit Center  575 is at   1.485535 -0.416123 -1.838555
      ESP Fit Center  576 is at   1.200052  0.000090 -2.078509
      ESP Fit Center  577 is at   1.127683  0.410514 -2.078509
      ESP Fit Center  578 is at   0.919305  0.771435 -2.078509
      ESP Fit Center  579 is at   0.600052  1.039321 -2.078509
      ESP Fit Center  580 is at   0.208430  1.181859 -2.078509
      ESP Fit Center  581 is at  -1.199948  0.000090 -2.078509
      ESP Fit Center  582 is at   1.127683 -0.410334 -2.078509
      ESP Fit Center  583 is at   0.820901  0.000090 -2.255310
      ESP Fit Center  584 is at   0.710928  0.410514 -2.255310
      ESP Fit Center  585 is at   0.410476  0.710966 -2.255310
      ESP Fit Center  586 is at   0.000052  0.820938 -2.255310
      ESP Fit Center  587 is at  -0.410372  0.710966 -2.255310
      ESP Fit Center  588 is at  -0.710823  0.410514 -2.255310
      ESP Fit Center  589 is at  -0.820796  0.000090 -2.255310
      ESP Fit Center  590 is at   0.710928 -0.410334 -2.255310
      ESP Fit Center  591 is at   0.416808  0.000090 -2.363587
      ESP Fit Center  592 is at   0.208430  0.361011 -2.363587
      ESP Fit Center  593 is at  -0.208326  0.361011 -2.363587
      ESP Fit Center  594 is at  -0.416703  0.000090 -2.363587
      ESP Fit Center  595 is at   0.000052  0.000090 -2.400048
      ESP Fit Center  596 is at  -0.765746 -2.220983  0.651735
      ESP Fit Center  597 is at  -0.355791 -2.341356  0.651735
      ESP Fit Center  598 is at   0.071471 -2.341356  0.651735
      ESP Fit Center  599 is at  -1.436979 -2.002629  0.287692
      ESP Fit Center  600 is at  -1.124832 -2.279166  0.287692
      ESP Fit Center  601 is at  -0.755577 -2.472967  0.287692
      ESP Fit Center  602 is at  -0.350671 -2.572767  0.287692
      ESP Fit Center  603 is at   0.066352 -2.572767  0.287692
      ESP Fit Center  604 is at   0.471257 -2.472967  0.287692
      ESP Fit Center  605 is at   0.840513 -2.279166  0.287692
      ESP Fit Center  606 is at  -1.828649 -1.667689 -0.118125
      ESP Fit Center  607 is at  -1.605640 -2.022606 -0.118125
      ESP Fit Center  608 is at  -1.309246 -2.318999 -0.118125
      ESP Fit Center  609 is at  -0.954330 -2.542008 -0.118125
      ESP Fit Center  610 is at  -0.558688 -2.680449 -0.118125
      ESP Fit Center  611 is at  -0.142160 -2.727381 -0.118125
      ESP Fit Center  612 is at   0.274369 -2.680449 -0.118125
      ESP Fit Center  613 is at   0.670010 -2.542008 -0.118125
      ESP Fit Center  614 is at   1.024927 -2.318999 -0.118125
      ESP Fit Center  615 is at   1.321320 -2.022606 -0.118125
      ESP Fit Center  616 is at  -1.961654 -1.468578 -0.545365
      ESP Fit Center  617 is at  -1.787326 -1.845383 -0.545365
      ESP Fit Center  618 is at  -1.536071 -2.175902 -0.545365
      ESP Fit Center  619 is at  -1.219639 -2.444682 -0.545365
      ESP Fit Center  620 is at  -0.852825 -2.639154 -0.545365
      ESP Fit Center  621 is at  -0.452781 -2.750226 -0.545365
      ESP Fit Center  622 is at  -0.038213 -2.772703 -0.545365
      ESP Fit Center  623 is at   0.371495 -2.705535 -0.545365
      ESP Fit Center  624 is at   0.757184 -2.551862 -0.545365
      ESP Fit Center  625 is at   1.100822 -2.318870 -0.545365
      ESP Fit Center  626 is at   1.386339 -2.017454 -0.545365
      ESP Fit Center  627 is at  -1.967090 -1.272048 -0.972605
      ESP Fit Center  628 is at  -1.828649 -1.667689 -0.972605
      ESP Fit Center  629 is at  -1.605640 -2.022606 -0.972605
      ESP Fit Center  630 is at  -1.309246 -2.318999 -0.972605
      ESP Fit Center  631 is at  -0.954330 -2.542008 -0.972605
      ESP Fit Center  632 is at  -0.558688 -2.680449 -0.972605
      ESP Fit Center  633 is at  -0.142160 -2.727381 -0.972605
      ESP Fit Center  634 is at   0.274369 -2.680449 -0.972605
      ESP Fit Center  635 is at   0.670010 -2.542008 -0.972605
      ESP Fit Center  636 is at   1.024927 -2.318999 -0.972605
      ESP Fit Center  637 is at   1.321320 -2.022606 -0.972605
      ESP Fit Center  638 is at   1.544329 -1.667689 -0.972605
      ESP Fit Center  639 is at  -1.872020 -0.855519 -1.378422
      ESP Fit Center  640 is at  -1.821754 -1.269502 -1.378422
      ESP Fit Center  641 is at  -1.673875 -1.659425 -1.378422
      ESP Fit Center  642 is at  -1.436979 -2.002629 -1.378422
      ESP Fit Center  643 is at  -1.124832 -2.279166 -1.378422
      ESP Fit Center  644 is at  -0.755577 -2.472967 -1.378422
      ESP Fit Center  645 is at  -0.350671 -2.572767 -1.378422
      ESP Fit Center  646 is at   0.066352 -2.572767 -1.378422
      ESP Fit Center  647 is at   0.471257 -2.472967 -1.378422
      ESP Fit Center  648 is at   0.840513 -2.279166 -1.378422
      ESP Fit Center  649 is at   1.152659 -2.002629 -1.378422
      ESP Fit Center  650 is at   1.389555 -1.659425 -1.378422
      ESP Fit Center  651 is at   1.537434 -1.269502 -1.378422
      ESP Fit Center  652 is at  -1.643276 -0.855519 -1.742466
      ESP Fit Center  653 is at  -1.582471 -1.278432 -1.742466
      ESP Fit Center  654 is at  -1.404979 -1.667084 -1.742466
      ESP Fit Center  655 is at  -1.125182 -1.989987 -1.742466
      ESP Fit Center  656 is at  -0.765746 -2.220983 -1.742466
      ESP Fit Center  657 is at  -0.355791 -2.341356 -1.742466
      ESP Fit Center  658 is at   0.071471 -2.341356 -1.742466
      ESP Fit Center  659 is at   0.481426 -2.220983 -1.742466
      ESP Fit Center  660 is at   0.840862 -1.989987 -1.742466
      ESP Fit Center  661 is at   1.120660 -1.667084 -1.742466
      ESP Fit Center  662 is at   1.298151 -1.278432 -1.742466
      ESP Fit Center  663 is at   1.054941 -0.855519 -2.046482
      ESP Fit Center  664 is at  -1.267066 -0.446087 -2.046482
      ESP Fit Center  665 is at  -1.339260 -0.855519 -2.046482
      ESP Fit Center  666 is at  -1.267066 -1.264952 -2.046482
      ESP Fit Center  667 is at  -1.059192 -1.625000 -2.046482
      ESP Fit Center  668 is at  -0.740710 -1.892238 -2.046482
      ESP Fit Center  669 is at  -0.350034 -2.034433 -2.046482
      ESP Fit Center  670 is at   0.065714 -2.034433 -2.046482
      ESP Fit Center  671 is at   0.456390 -1.892238 -2.046482
      ESP Fit Center  672 is at   0.774872 -1.625000 -2.046482
      ESP Fit Center  673 is at   0.982747 -1.264952 -2.046482
      ESP Fit Center  674 is at   0.690897 -0.855519 -2.275225
      ESP Fit Center  675 is at  -0.863608 -0.438991 -2.275225
      ESP Fit Center  676 is at  -0.975217 -0.855519 -2.275225
      ESP Fit Center  677 is at  -0.863608 -1.272048 -2.275225
      ESP Fit Center  678 is at  -0.558688 -1.576967 -2.275225
      ESP Fit Center  679 is at  -0.142160 -1.688576 -2.275225
      ESP Fit Center  680 is at   0.274369 -1.576967 -2.275225
      ESP Fit Center  681 is at   0.579288 -1.272048 -2.275225
      ESP Fit Center  682 is at   0.285080 -0.855519 -2.417227
      ESP Fit Center  683 is at   0.071460 -0.485518 -2.417227
      ESP Fit Center  684 is at  -0.355780 -0.485518 -2.417227
      ESP Fit Center  685 is at  -0.569400 -0.855519 -2.417227
      ESP Fit Center  686 is at  -0.355780 -1.225520 -2.417227
      ESP Fit Center  687 is at   0.071460 -1.225520 -2.417227
      ESP Fit Center  688 is at  -0.142160 -0.855519 -2.465365
      ESP Fit Center  689 is at  -0.133113 -0.203822  2.915004
      ESP Fit Center  690 is at   0.294128 -0.203822  2.866865
      ESP Fit Center  691 is at   0.080508  0.166179  2.866865
      ESP Fit Center  692 is at  -0.346733  0.166179  2.866865
      ESP Fit Center  693 is at  -0.560353 -0.203822  2.866865
      ESP Fit Center  694 is at  -0.346733 -0.573822  2.866865
      ESP Fit Center  695 is at   0.080508 -0.573822  2.866865
      ESP Fit Center  696 is at   0.699944 -0.203822  2.724864
      ESP Fit Center  697 is at   0.588336  0.212707  2.724864
      ESP Fit Center  698 is at   0.283416  0.517627  2.724864
      ESP Fit Center  699 is at  -0.133113  0.629235  2.724864
      ESP Fit Center  700 is at  -0.549641  0.517627  2.724864
      ESP Fit Center  701 is at  -0.854561  0.212707  2.724864
      ESP Fit Center  702 is at  -0.966169 -0.203822  2.724864
      ESP Fit Center  703 is at  -0.854561 -0.620350  2.724864
      ESP Fit Center  704 is at  -0.549641 -0.925270  2.724864
      ESP Fit Center  705 is at  -0.133113 -1.036878  2.724864
      ESP Fit Center  706 is at   0.283416 -0.925270  2.724864
      ESP Fit Center  707 is at   0.588336 -0.620350  2.724864
      ESP Fit Center  708 is at   1.063988 -0.203822  2.496120
      ESP Fit Center  709 is at   0.991794  0.205611  2.496120
      ESP Fit Center  710 is at   0.783920  0.565660  2.496120
      ESP Fit Center  711 is at   0.465438  0.832898  2.496120
      ESP Fit Center  712 is at   0.074762  0.975092  2.496120
      ESP Fit Center  713 is at  -0.340987  0.975092  2.496120
      ESP Fit Center  714 is at  -0.731663  0.832898  2.496120
      ESP Fit Center  715 is at  -1.050145  0.565660  2.496120
      ESP Fit Center  716 is at  -1.258019  0.205611  2.496120
      ESP Fit Center  717 is at  -1.330213 -0.203822  2.496120
      ESP Fit Center  718 is at  -1.258019 -0.613254  2.496120
      ESP Fit Center  719 is at  -1.050145 -0.973303  2.496120
      ESP Fit Center  720 is at  -0.731663 -1.240541  2.496120
      ESP Fit Center  721 is at  -0.340987 -1.382735  2.496120
      ESP Fit Center  722 is at   0.074762 -1.382735  2.496120
      ESP Fit Center  723 is at   0.465438 -1.240541  2.496120
      ESP Fit Center  724 is at   0.783920 -0.973303  2.496120
      ESP Fit Center  725 is at   0.991794 -0.613254  2.496120
      ESP Fit Center  726 is at   1.368004 -0.203822  2.192104
      ESP Fit Center  727 is at   1.307198  0.219092  2.192104
      ESP Fit Center  728 is at   1.129707  0.607743  2.192104
      ESP Fit Center  729 is at   0.849910  0.930647  2.192104
      ESP Fit Center  730 is at   0.490474  1.161642  2.192104
      ESP Fit Center  731 is at   0.080519  1.282016  2.192104
      ESP Fit Center  732 is at  -0.346744  1.282016  2.192104
      ESP Fit Center  733 is at  -0.756699  1.161642  2.192104
      ESP Fit Center  734 is at  -1.116135  0.930647  2.192104
      ESP Fit Center  735 is at  -1.395932  0.607743  2.192104
      ESP Fit Center  736 is at  -1.573423  0.219092  2.192104
      ESP Fit Center  737 is at  -1.634229 -0.203822  2.192104
      ESP Fit Center  738 is at  -1.573423 -0.626735  2.192104
      ESP Fit Center  739 is at  -1.395932 -1.015386  2.192104
      ESP Fit Center  740 is at  -1.116135 -1.338290  2.192104
      ESP Fit Center  741 is at  -0.756699 -1.569285  2.192104
      ESP Fit Center  742 is at  -0.346744 -1.689659  2.192104
      ESP Fit Center  743 is at   0.080519 -1.689659  2.192104
      ESP Fit Center  744 is at   0.490474 -1.569285  2.192104
      ESP Fit Center  745 is at   0.849910 -1.338290  2.192104
      ESP Fit Center  746 is at   1.129707 -1.015386  2.192104
      ESP Fit Center  747 is at   1.307198 -0.626735  2.192104
      ESP Fit Center  748 is at   1.596748 -0.203822  1.828061
      ESP Fit Center  749 is at   1.546481  0.210161  1.828061
      ESP Fit Center  750 is at  -0.746529  1.413626  1.828061
      ESP Fit Center  751 is at  -1.115785  1.219826  1.828061
      ESP Fit Center  752 is at  -1.427932  0.943288  1.828061
      ESP Fit Center  753 is at  -1.664828  0.600085  1.828061
      ESP Fit Center  754 is at  -1.812706  0.210161  1.828061
      ESP Fit Center  755 is at  -1.862973 -0.203822  1.828061
      ESP Fit Center  756 is at  -1.812706 -0.617804  1.828061
      ESP Fit Center  757 is at  -1.664828 -1.007728  1.828061
      ESP Fit Center  758 is at  -1.427932 -1.350931  1.828061
      ESP Fit Center  759 is at  -1.115785 -1.627469  1.828061
      ESP Fit Center  760 is at  -0.746529 -1.821269  1.828061
      ESP Fit Center  761 is at  -0.341624 -1.921069  1.828061
      ESP Fit Center  762 is at   0.075399 -1.921069  1.828061
      ESP Fit Center  763 is at   0.480304 -1.821269  1.828061
      ESP Fit Center  764 is at   0.849560 -1.627469  1.828061
      ESP Fit Center  765 is at   1.161706 -1.350931  1.828061
      ESP Fit Center  766 is at   1.398603 -1.007728  1.828061
      ESP Fit Center  767 is at   1.546481 -0.617804  1.828061
      ESP Fit Center  768 is at  -1.958043  0.212707  1.422244
      ESP Fit Center  769 is at  -2.004974 -0.203822  1.422244
      ESP Fit Center  770 is at  -1.958043 -0.620350  1.422244
      ESP Fit Center  771 is at  -1.819602 -1.015992  1.422244
      ESP Fit Center  772 is at  -1.596593 -1.370908  1.422244
      ESP Fit Center  773 is at  -1.300199 -1.667302  1.422244
      ESP Fit Center  774 is at  -0.945283 -1.890311  1.422244
      ESP Fit Center  775 is at  -0.549641 -2.028752  1.422244
      ESP Fit Center  776 is at  -0.133113 -2.075683  1.422244
      ESP Fit Center  777 is at   0.283416 -2.028752  1.422244
      ESP Fit Center  778 is at   0.679058 -1.890311  1.422244
      ESP Fit Center  779 is at   1.033974 -1.667302  1.422244
      ESP Fit Center  780 is at  -0.884157  1.889086  1.204773
      ESP Fit Center  781 is at  -1.274833  1.746892  1.204773
      ESP Fit Center  782 is at  -1.593315  1.479654  1.204773
      ESP Fit Center  783 is at  -1.801189  1.119605  1.204773
      ESP Fit Center  784 is at  -0.462652  2.196010  0.900757
      ESP Fit Center  785 is at  -0.889914  2.196010  0.900757
      ESP Fit Center  786 is at  -1.299869  2.075636  0.900757
      ESP Fit Center  787 is at  -1.659305  1.844641  0.900757
      ESP Fit Center  788 is at  -1.939102  1.521737  0.900757
      ESP Fit Center  789 is at  -2.116593  1.133086  0.900757
      ESP Fit Center  790 is at  -2.177399  0.710173  0.900757
      ESP Fit Center  791 is at  -0.467771  2.427420  0.536713
      ESP Fit Center  792 is at  -0.884794  2.427420  0.536713
      ESP Fit Center  793 is at  -1.289700  2.327620  0.536713
      ESP Fit Center  794 is at  -1.658955  2.133820  0.536713
      ESP Fit Center  795 is at  -1.971102  1.857282  0.536713
      ESP Fit Center  796 is at  -2.207998  1.514079  0.536713
      ESP Fit Center  797 is at  -2.355876  1.124155  0.536713
      ESP Fit Center  798 is at  -2.406143  0.710173  0.536713
      ESP Fit Center  799 is at  -2.355876  0.296190  0.536713
      ESP Fit Center  800 is at   0.135888  2.396662  0.130897
      ESP Fit Center  801 is at  -0.259754  2.535103  0.130897
      ESP Fit Center  802 is at  -0.676283  2.582034  0.130897
      ESP Fit Center  803 is at  -1.092811  2.535103  0.130897
      ESP Fit Center  804 is at  -1.488453  2.396662  0.130897
      ESP Fit Center  805 is at  -1.843369  2.173653  0.130897
      ESP Fit Center  806 is at  -2.139763  1.877259  0.130897
      ESP Fit Center  807 is at  -2.362772  1.522343  0.130897
      ESP Fit Center  808 is at  -2.501213  1.126701  0.130897
      ESP Fit Center  809 is at  -2.548144  0.710173  0.130897
      ESP Fit Center  810 is at  -2.501213  0.293644  0.130897
      ESP Fit Center  811 is at   0.223061  2.406516 -0.296343
      ESP Fit Center  812 is at  -0.162628  2.560189 -0.296343
      ESP Fit Center  813 is at  -0.572336  2.627357 -0.296343
      ESP Fit Center  814 is at  -0.986904  2.604880 -0.296343
      ESP Fit Center  815 is at  -1.386948  2.493808 -0.296343
      ESP Fit Center  816 is at  -1.753762  2.299335 -0.296343
      ESP Fit Center  817 is at  -2.070194  2.030556 -0.296343
      ESP Fit Center  818 is at  -2.321449  1.700036 -0.296343
      ESP Fit Center  819 is at  -2.495777  1.323232 -0.296343
      ESP Fit Center  820 is at  -2.585028  0.917761 -0.296343
      ESP Fit Center  821 is at  -2.585028  0.502584 -0.296343
      ESP Fit Center  822 is at  -2.495777  0.097114 -0.296343
      ESP Fit Center  823 is at   0.135888  2.396662 -0.723584
      ESP Fit Center  824 is at  -0.259754  2.535103 -0.723584
      ESP Fit Center  825 is at  -0.676283  2.582034 -0.723584
      ESP Fit Center  826 is at  -1.092811  2.535103 -0.723584
      ESP Fit Center  827 is at  -1.488453  2.396662 -0.723584
      ESP Fit Center  828 is at  -1.843369  2.173653 -0.723584
      ESP Fit Center  829 is at  -2.139763  1.877259 -0.723584
      ESP Fit Center  830 is at  -2.362772  1.522343 -0.723584
      ESP Fit Center  831 is at  -2.501213  1.126701 -0.723584
      ESP Fit Center  832 is at  -2.548144  0.710173 -0.723584
      ESP Fit Center  833 is at  -2.501213  0.293644 -0.723584
      ESP Fit Center  834 is at  -2.362772 -0.101998 -0.723584
      ESP Fit Center  835 is at   0.306390  2.133820 -1.129400
      ESP Fit Center  836 is at  -0.062866  2.327620 -1.129400
      ESP Fit Center  837 is at  -0.467771  2.427420 -1.129400
      ESP Fit Center  838 is at  -0.884794  2.427420 -1.129400
      ESP Fit Center  839 is at  -1.289700  2.327620 -1.129400
      ESP Fit Center  840 is at  -1.658955  2.133820 -1.129400
      ESP Fit Center  841 is at  -1.971102  1.857282 -1.129400
      ESP Fit Center  842 is at  -2.207998  1.514079 -1.129400
      ESP Fit Center  843 is at  -2.355876  1.124155 -1.129400
      ESP Fit Center  844 is at  -2.406143  0.710173 -1.129400
      ESP Fit Center  845 is at  -2.355876  0.296190 -1.129400
      ESP Fit Center  846 is at  -2.207998 -0.093734 -1.129400
      ESP Fit Center  847 is at  -0.052696  2.075636 -1.493444
      ESP Fit Center  848 is at  -0.462652  2.196010 -1.493444
      ESP Fit Center  849 is at  -0.889914  2.196010 -1.493444
      ESP Fit Center  850 is at  -1.299869  2.075636 -1.493444
      ESP Fit Center  851 is at  -1.659305  1.844641 -1.493444
[...]
 1434 Fit       0.176493
 1435 Fit       0.179553
 1436 Fit       0.183990
 1437 Fit       0.190271
 1438 Fit       0.188074
 1439 Fit       0.182320
 1440 Fit       0.178361
 1441 Fit       0.175797
 1442 Fit       0.174361
 1443 Fit       0.173899
 1444 Fit       0.174354
 1445 Fit       0.175767
 1446 Fit       0.178280
 1447 Fit       0.182153
 1448 Fit       0.187812
 1449 Fit       0.189512
 1450 Fit       0.183464
 1451 Fit       0.179358
 1452 Fit       0.176834
 1453 Fit       0.175639
 1454 Fit       0.175641
 1455 Fit       0.176840
 1456 Fit       0.179371
 1457 Fit       0.183524
 1458 Fit       0.189771
 1459 Fit       0.190286
 1460 Fit       0.184219
 1461 Fit       0.180334
 1462 Fit       0.178376
 1463 Fit       0.178164
 1464 Fit       0.179691
 1465 Fit       0.183153
 1466 Fit       0.188948
 1467 Fit       0.190604
 1468 Fit       0.184757
 1469 Fit       0.182007
 1470 Fit       0.182346
 1471 Fit       0.185882
 1472 Fit       0.187126
 1473 Fit       0.189515
 1474 Fit       0.173744
 1475 Fit       0.172391
 1476 Fit       0.172558
 1477 Fit       0.174258
 1478 Fit       0.169118
 1479 Fit       0.167912
 1480 Fit       0.167813
 1481 Fit       0.168816
 1482 Fit       0.171008
 1483 Fit       0.171524
 1484 Fit       0.165752
 1485 Fit       0.164681
 1486 Fit       0.164443
 1487 Fit       0.165027
 1488 Fit       0.166479
 1489 Fit       0.168913
 1490 Fit       0.172512
 1491 Fit       0.170737
 1492 Fit       0.167725
 1493 Fit       0.163382
 1494 Fit       0.162388
 1495 Fit       0.162119
 1496 Fit       0.162563
 1497 Fit       0.163758
 1498 Fit       0.165798
 1499 Fit       0.168839
 1500 Fit       0.173118
 1501 Fit       0.171637
 1502 Fit       0.167857
 1503 Fit       0.165166
 1504 Fit       0.161829
 1505 Fit       0.160897
 1506 Fit       0.160603
 1507 Fit       0.160933
 1508 Fit       0.161916
 1509 Fit       0.163626
 1510 Fit       0.166192
 1511 Fit       0.169810
 1512 Fit       0.169267
 1513 Fit       0.165883
 1514 Fit       0.163457
 1515 Fit       0.160974
 1516 Fit       0.160075
 1517 Fit       0.159774
 1518 Fit       0.160056
 1519 Fit       0.160946
 1520 Fit       0.162510
 1521 Fit       0.164863
 1522 Fit       0.168185
 1523 Fit       0.172738
 1524 Fit       0.172355
 1525 Fit       0.168031
 1526 Fit       0.164827
 1527 Fit       0.162525
 1528 Fit       0.160746
 1529 Fit       0.159840
 1530 Fit       0.159561
 1531 Fit       0.159893
 1532 Fit       0.160866
 1533 Fit       0.162556
 1534 Fit       0.165095
 1535 Fit       0.168688
 1536 Fit       0.173642
 1537 Fit       0.172644
 1538 Fit       0.168075
 1539 Fit       0.164723
 1540 Fit       0.162337
 1541 Fit       0.161117
 1542 Fit       0.160183
 1543 Fit       0.159945
 1544 Fit       0.160389
 1545 Fit       0.161554
 1546 Fit       0.163538
 1547 Fit       0.166506
 1548 Fit       0.170719
 1549 Fit       0.174186
 1550 Fit       0.169090
 1551 Fit       0.165403
 1552 Fit       0.162814
 1553 Fit       0.162094
 1554 Fit       0.161132
 1555 Fit       0.160943
 1556 Fit       0.161515
 1557 Fit       0.162899
 1558 Fit       0.165210
 1559 Fit       0.168646
 1560 Fit       0.173504
 1561 Fit       0.170734
 1562 Fit       0.166705
 1563 Fit       0.163903
 1564 Fit       0.163721
 1565 Fit       0.162701
 1566 Fit       0.162662
 1567 Fit       0.163603
 1568 Fit       0.165611
 1569 Fit       0.168868
 1570 Fit       0.173666
 1571 Fit       0.174118
 1572 Fit       0.169174
 1573 Fit       0.165815
 1574 Fit       0.166078
 1575 Fit       0.165025
 1576 Fit       0.165236
 1577 Fit       0.166731
 1578 Fit       0.169645
 1579 Fit       0.174224
 1580 Fit       0.172535
 1581 Fit       0.168503
 1582 Fit       0.169285
 1583 Fit       0.168253
 1584 Fit       0.169054
 1585 Fit       0.171744
 1586 Fit       0.172263
 1587 Fit       0.173504
 1588 Fit       0.172765
 1589 Fit       0.174914
 1590 Fit       0.174776
 1591 Fit       0.174428
 1592 Fit       0.173868
 1593 Fit       0.173219
 1594 Fit       0.172671
 1595 Fit       0.172401
 1596 Fit       0.172502
 1597 Fit       0.172964
 1598 Fit       0.173688
 1599 Fit       0.174525
 1600 Fit       0.174443
 1601 Fit       0.174647
 1602 Fit       0.174511
 1603 Fit       0.173996
 1604 Fit       0.173212
 1605 Fit       0.172367
 1606 Fit       0.171692
 1607 Fit       0.171358
 1608 Fit       0.171439
 1609 Fit       0.171903
 1610 Fit       0.172628
 1611 Fit       0.173440
 1612 Fit       0.174171
 1613 Fit       0.174712
 1614 Fit       0.175051
 1615 Fit       0.173765
 1616 Fit       0.173581
 1617 Fit       0.173714
 1618 Fit       0.174062
 1619 Fit       0.174758
 1620 Fit       0.174178
 1621 Fit       0.173091
 1622 Fit       0.172037
 1623 Fit       0.171252
 1624 Fit       0.170887
 1625 Fit       0.170990
 1626 Fit       0.171510
 1627 Fit       0.172308
 1628 Fit       0.173192
 1629 Fit       0.173958
 1630 Fit       0.174453
 1631 Fit       0.174620
 1632 Fit       0.174512
 1633 Fit       0.174257
 1634 Fit       0.174005
 1635 Fit       0.173880
 1636 Fit       0.174321
 1637 Fit       0.173527
 1638 Fit       0.172832
 1639 Fit       0.172376
 1640 Fit       0.172261
 1641 Fit       0.172525
 1642 Fit       0.173130
 1643 Fit       0.173944
 1644 Fit       0.173145
 1645 Fit       0.171941
 1646 Fit       0.171162
 1647 Fit       0.170917
 1648 Fit       0.171212
 1649 Fit       0.171954
 1650 Fit       0.172965
 1651 Fit       0.174011
 1652 Fit       0.174851
 1653 Fit       0.174176
 1654 Fit       0.173447
 1655 Fit       0.172842
 1656 Fit       0.172479
 1657 Fit       0.172410
 1658 Fit       0.172626
 1659 Fit       0.173067
 1660 Fit       0.173632
 1661 Fit       0.174198
 1662 Fit       0.174633
 1663 Fit       0.174825
 1664 Fit       0.174706
 1665 Fit       0.174275
 1666 Fit       0.173602
 1667 Fit       0.172813
 1668 Fit       0.172067
 1669 Fit       0.171524
 1670 Fit       0.171315
 1671 Fit       0.171530
 1672 Fit       0.172190
 1673 Fit       0.173236
 1674 Fit       0.173342
 1675 Fit       0.172122
 1676 Fit       0.171464
 1677 Fit       0.171431
 1678 Fit       0.171985
 1679 Fit       0.173002
 1680 Fit       0.173885
 1681 Fit       0.172796
 1682 Fit       0.171965
 1683 Fit       0.171486
 1684 Fit       0.171386
 1685 Fit       0.171637
 1686 Fit       0.172168
 1687 Fit       0.172870
 1688 Fit       0.173607
 1689 Fit       0.174234
 1690 Fit       0.174615
 1691 Fit       0.174660
 1692 Fit       0.174341
 1693 Fit       0.173712
 1694 Fit       0.172892
 1695 Fit       0.172043
 1696 Fit       0.171338
 1697 Fit       0.170933
 1698 Fit       0.170951
 1699 Fit       0.171464
 1700 Fit       0.172479
 1701 Fit       0.173920
 1702 Fit       0.173369
 1703 Fit       0.172380
 1704 Fit       0.172087
 1705 Fit       0.172493
 1706 Fit       0.173504
 1707 Fit       0.172968
 1708 Fit       0.171835
 1709 Fit       0.171137
 1710 Fit       0.170904
 1711 Fit       0.171115
 1712 Fit       0.171698
 1713 Fit       0.172545
 1714 Fit       0.173511
 1715 Fit       0.174430
 1716 Fit       0.174027
 1717 Fit       0.173028
 1718 Fit       0.172062
 1719 Fit       0.171320
 1720 Fit       0.170964
 1721 Fit       0.171113
 1722 Fit       0.171831
 1723 Fit       0.173118
 1724 Fit       0.173183
 1725 Fit       0.172922
 1726 Fit       0.173476
 1727 Fit       0.173522
 1728 Fit       0.172104
 1729 Fit       0.171234
 1730 Fit       0.170946
 1731 Fit       0.171216
 1732 Fit       0.171963
 1733 Fit       0.173060
 1734 Fit       0.172937
 1735 Fit       0.171976
 1736 Fit       0.171469
 1737 Fit       0.171556
 1738 Fit       0.172315
 1739 Fit       0.173910
 1740 Fit       0.173719
 1741 Fit       0.174420
 1742 Fit       0.172650
 1743 Fit       0.171683
 1744 Fit       0.171399
 1745 Fit       0.171772
 1746 Fit       0.172717
 1747 Fit       0.173008
 1748 Fit       0.172289
 1749 Fit       0.172236
 1750 Fit       0.172931
 1751 Fit       0.174431
 1752 Fit       0.174340
 1753 Fit       0.173320
 1754 Fit       0.172351
 1755 Fit       0.172132
 1756 Fit       0.172639
 1757 Fit       0.173283
 1758 Fit       0.173027
 1759 Fit       0.173559
 1760 Fit       0.175081
 1761 Fit       0.174560
 1762 Fit       0.174980
 1763 Fit       0.173940
 1764 Fit       0.173067
 1765 Fit       0.173035
 1766 Fit       0.173818
 1767 Fit       0.173850
 1768 Fit       0.173980
 1769 Fit       0.174549
 1770 Fit       0.174739
 1771 Fit       0.173967
 1772 Fit       0.173760
 1773 Fit       0.174474
 1774 Fit       0.174806
 1775 Fit       0.174362
 1776 Fit       0.174815
 1777 Fit       0.174242
 1778 Fit       0.174211
 1779 Fit       0.174682
 1780 Fit       0.174314
 1781 Fit       0.174893
 1782 Fit       0.174785
 1783 Fit       0.174649
 1784 Fit       0.173579
 1785 Fit       0.173534
 1786 Fit       0.174262
 1787 Fit       0.174710
 1788 Fit       0.174706
 1789 Fit       0.174526
 1790 Fit       0.174553
 1791 Fit       0.173282
 1792 Fit       0.172745
 1793 Fit       0.172705
 1794 Fit       0.173300
 1795 Fit       0.174939
 1796 Fit       0.174514
 1797 Fit       0.174867
 1798 Fit       0.174515
 1799 Fit       0.173941
 1800 Fit       0.173991
 1801 Fit       0.172962
 1802 Fit       0.172886
 1803 Fit       0.172593
 1804 Fit       0.172139
 1805 Fit       0.171839
 1806 Fit       0.172012
 1807 Fit       0.172735
 1808 Fit       0.174154
 1809 Fit       0.174136
 1810 Fit       0.174878
 1811 Fit       0.173639
 1812 Fit       0.173083
 1813 Fit       0.172007
 1814 Fit       0.171673
 1815 Fit       0.171351
 1816 Fit       0.171170
 1817 Fit       0.171378
 1818 Fit       0.172002
 1819 Fit       0.172725
 1820 Fit       0.173156
 1821 Fit       0.173247
 1822 Fit       0.173386
 1823 Fit       0.174020
 1824 Fit       0.173523
 1825 Fit       0.172531
 1826 Fit       0.171494
 1827 Fit       0.171007
 1828 Fit       0.170842
 1829 Fit       0.171127
 1830 Fit       0.171708
 1831 Fit       0.172207
 1832 Fit       0.172691
 1833 Fit       0.173519
 1834 Fit       0.173577
 1835 Fit       0.172355
 1836 Fit       0.171383
 1837 Fit       0.170967
 1838 Fit       0.171344
 1839 Fit       0.172068
 1840 Fit       0.172765
 1841 Fit       0.172393
 1842 Fit       0.171602
 1843 Fit       0.174495
 1844 Fit       0.174424
 1845 Fit       0.172685
 1846 Fit       0.170721
 1847 Fit       0.169588
 1848 Fit       0.169223
 1849 Fit       0.169615
 1850 Fit       0.170804
 1851 Fit       0.172886
 1852 Fit       0.171993
 1853 Fit       0.169238
 1854 Fit       0.167315
 1855 Fit       0.166109
 1856 Fit       0.165550
 1857 Fit       0.165613
 1858 Fit       0.166311
 1859 Fit       0.167701
 1860 Fit       0.169887
 1861 Fit       0.173032
 1862 Fit       0.170738
 1863 Fit       0.167730
 1864 Fit       0.165549
 1865 Fit       0.164062
 1866 Fit       0.163180
 1867 Fit       0.162856
 1868 Fit       0.163078
 1869 Fit       0.163866
 1870 Fit       0.165278
 1871 Fit       0.167413
 1872 Fit       0.170426
 1873 Fit       0.169801
 1874 Fit       0.166566
 1875 Fit       0.164208
 1876 Fit       0.162573
 1877 Fit       0.161558
 1878 Fit       0.161102
 1879 Fit       0.161182
 1880 Fit       0.161809
 1881 Fit       0.163031
 1882 Fit       0.164935
 1883 Fit       0.167656
 1884 Fit       0.171393
 1885 Fit       0.171530
 1886 Fit       0.167500
 1887 Fit       0.164532
 1888 Fit       0.162417
 1889 Fit       0.161012
 1890 Fit       0.160225
 1891 Fit       0.160007
 1892 Fit       0.160350
 1893 Fit       0.161280
 1894 Fit       0.162866
 1895 Fit       0.165221
 1896 Fit       0.168515
 1897 Fit       0.172982
 1898 Fit       0.174447
 1899 Fit       0.169552
 1900 Fit       0.165885
 1901 Fit       0.163209
 1902 Fit       0.161347
 1903 Fit       0.160180
 1904 Fit       0.159630
 1905 Fit       0.159666
 1906 Fit       0.160293
 1907 Fit       0.161557
 1908 Fit       0.163543
 1909 Fit       0.166383
 1910 Fit       0.170255
 1911 Fit       0.172296
 1912 Fit       0.167750
 1913 Fit       0.164405
 1914 Fit       0.162064
 1915 Fit       0.160577
 1916 Fit       0.159843
 1917 Fit       0.159812
 1918 Fit       0.160484
 1919 Fit       0.161910
 1920 Fit       0.164183
 1921 Fit       0.167443
 1922 Fit       0.171852
 1923 Fit       0.170654
 1924 Fit       0.166535
 1925 Fit       0.163585
 1926 Fit       0.161671
 1927 Fit       0.160681
 1928 Fit       0.160551
 1929 Fit       0.161271
 1930 Fit       0.162888
 1931 Fit       0.165491
 1932 Fit       0.169186
 1933 Fit       0.174031
 1934 Fit       0.171777
 1935 Fit       0.167417
 1936 Fit       0.164340
 1937 Fit       0.162522
 1938 Fit       0.161896
 1939 Fit       0.162425
 1940 Fit       0.164130
 1941 Fit       0.167059
 1942 Fit       0.171198
 1943 Fit       0.173684
 1944 Fit       0.170898
 1945 Fit       0.166806
 1946 Fit       0.164481
 1947 Fit       0.164089
 1948 Fit       0.165627
 1949 Fit       0.168984
 1950 Fit       0.171913
 1951 Fit       0.170591
 1952 Fit       0.167225
 1953 Fit       0.167836
 1954 Fit       0.170908
 1955 Fit       0.160120
 1956 Fit       0.160893
 1957 Fit       0.161257
 1958 Fit       0.160784
 1959 Fit       0.159967
 1960 Fit       0.159604
 1961 Fit       0.160050
 1962 Fit       0.162345
 1963 Fit       0.162955
 1964 Fit       0.163082
 1965 Fit       0.162753
 1966 Fit       0.162092
 1967 Fit       0.161243
 1968 Fit       0.160417
 1969 Fit       0.159849
 1970 Fit       0.159681
 1971 Fit       0.159934
 1972 Fit       0.160560
 1973 Fit       0.161442
 1974 Fit       0.164582
 1975 Fit       0.165339
 1976 Fit       0.165719
 1977 Fit       0.165709
 1978 Fit       0.165395
 1979 Fit       0.164860
 1980 Fit       0.164144
 1981 Fit       0.163279
 1982 Fit       0.162350
 1983 Fit       0.161489
 1984 Fit       0.160829
 1985 Fit       0.160447
 1986 Fit       0.160362
 1987 Fit       0.160553
 1988 Fit       0.160996
 1989 Fit       0.161677
 1990 Fit       0.162569
 1991 Fit       0.163591
 1992 Fit       0.167768
 1993 Fit       0.168725
 1994 Fit       0.169298
 1995 Fit       0.169449
 1996 Fit       0.169257
 1997 Fit       0.168847
 1998 Fit       0.168301
 1999 Fit       0.167629
 2000 Fit       0.166802
 2001 Fit       0.165821
 2002 Fit       0.164753
 2003 Fit       0.163714
 2004 Fit       0.162826
 2005 Fit       0.162176
 2006 Fit       0.161799
 2007 Fit       0.161685
 2008 Fit       0.161803
 2009 Fit       0.162121
 2010 Fit       0.162627
 2011 Fit       0.163330
 2012 Fit       0.164245
 2013 Fit       0.165354
 2014 Fit       0.166580
 2015 Fit       0.172143
 2016 Fit       0.173403
 2017 Fit       0.174209
 2018 Fit       0.174484
 2019 Fit       0.173300
 2020 Fit       0.172695
 2021 Fit       0.172015
 2022 Fit       0.171181
 2023 Fit       0.170138
 2024 Fit       0.168910
 2025 Fit       0.167599
 2026 Fit       0.166347
 2027 Fit       0.165281
 2028 Fit       0.164484
 2029 Fit       0.163986
 2030 Fit       0.163772
 2031 Fit       0.163797
 2032 Fit       0.164015
 2033 Fit       0.164390
 2034 Fit       0.164916
 2035 Fit       0.165616
 2036 Fit       0.166531
 2037 Fit       0.167693
 2038 Fit       0.169088
 2039 Fit       0.170629
 2040 Fit       0.174657
 2041 Fit       0.173090
 2042 Fit       0.171461
 2043 Fit       0.169937
 2044 Fit       0.168653
 2045 Fit       0.167686
 2046 Fit       0.167060
 2047 Fit       0.166754
 2048 Fit       0.166717
 2049 Fit       0.166886
 2050 Fit       0.167203
 2051 Fit       0.167632
 2052 Fit       0.168171
 2053 Fit       0.168852
 2054 Fit       0.169735
 2055 Fit       0.170887
 2056 Fit       0.172352
 2057 Fit       0.174117
 2058 Fit       0.173097
 2059 Fit       0.171878
 2060 Fit       0.171111
 2061 Fit       0.170757
 2062 Fit       0.170742
 2063 Fit       0.170976
 2064 Fit       0.171366
 2065 Fit       0.171847
 2066 Fit       0.172389
 2067 Fit       0.173016
 2068 Fit       0.173801
 2069 Fit       0.173368
 2070 Fit       0.171699
 2071 Fit       0.171289
 2072 Fit       0.172090
 2073 Fit       0.174157
 2074 Fit       0.172438
 2075 Fit       0.169588
 2076 Fit       0.167848
 2077 Fit       0.167073
 2078 Fit       0.167191
 2079 Fit       0.168197
 2080 Fit       0.170149
 2081 Fit       0.173174
 2082 Fit       0.171232
 2083 Fit       0.167935
 2084 Fit       0.165732
 2085 Fit       0.164438
 2086 Fit       0.163943
 2087 Fit       0.164199
 2088 Fit       0.165208
 2089 Fit       0.167029
 2090 Fit       0.169774
 2091 Fit       0.173617
 2092 Fit       0.170932
 2093 Fit       0.167276
 2094 Fit       0.164706
 2095 Fit       0.163015
 2096 Fit       0.162069
 2097 Fit       0.161789
 2098 Fit       0.162145
 2099 Fit       0.163149
 2100 Fit       0.164856
 2101 Fit       0.167367
 2102 Fit       0.170834
 2103 Fit       0.170303
 2104 Fit       0.166558
 2105 Fit       0.163878
 2106 Fit       0.162049
 2107 Fit       0.160933
 2108 Fit       0.160442
 2109 Fit       0.160535
 2110 Fit       0.161208
 2111 Fit       0.162494
 2112 Fit       0.164467
 2113 Fit       0.167244
 2114 Fit       0.170999
 2115 Fit       0.173002
 2116 Fit       0.168298
 2117 Fit       0.164884
 2118 Fit       0.162476
 2119 Fit       0.160884
 2120 Fit       0.159981
 2121 Fit       0.159695
 2122 Fit       0.159998
 2123 Fit       0.160901
 2124 Fit       0.162457
 2125 Fit       0.164765
 2126 Fit       0.167974
 2127 Fit       0.172309
 2128 Fit       0.170110
 2129 Fit       0.166063
 2130 Fit       0.163187
 2131 Fit       0.161246
 2132 Fit       0.160084
 2133 Fit       0.159605
 2134 Fit       0.159768
 2135 Fit       0.160575
 2136 Fit       0.162079
 2137 Fit       0.164381
 2138 Fit       0.167650
 2139 Fit       0.172132
 2140 Fit       0.172699
 2141 Fit       0.168009
 2142 Fit       0.164629
 2143 Fit       0.162302
 2144 Fit       0.160848
 2145 Fit       0.160153
 2146 Fit       0.160158
 2147 Fit       0.160858
 2148 Fit       0.162300
 2149 Fit       0.164588
 2150 Fit       0.167894
 2151 Fit       0.172477
 2152 Fit       0.173732
 2153 Fit       0.168768
 2154 Fit       0.165246
 2155 Fit       0.162914
 2156 Fit       0.161590
 2157 Fit       0.161166
 2158 Fit       0.161603
 2159 Fit       0.162936
 2160 Fit       0.165271
 2161 Fit       0.168806
 2162 Fit       0.173843
 2163 Fit       0.170049
 2164 Fit       0.166431
 2165 Fit       0.164158
 2166 Fit       0.163070
 2167 Fit       0.163083
 2168 Fit       0.164201
 2169 Fit       0.166524
 2170 Fit       0.170254
 2171 Fit       0.170949
 2172 Fit       0.167542
 2173 Fit       0.165794
 2174 Fit       0.165613
 2175 Fit       0.167003
 2176 Fit       0.170092
 2177 Fit       0.171610
 2178 Fit       0.169209
 2179 Fit       0.169514
 2180 Fit       0.172604
 2181 Fit       0.173777
 -----------------------------------------------------------------
 Leave Link  602 at Tue Feb 14 16:10:09 2023, MaxMem=  3758096384 cpu:               2.7 elap:               0.1

 Test job not archived.
 1\1\GINC-RAYL8\SP\RB3LYP\Aug-CC-pVDZ\H4N1(1+)\ZHUQIANG\14-Feb-2023\0\\
 #b3lyp/aug-cc-pvdz #SCF=tight #maxdisk=200GB #Pop=MK iop(6/33=2) iop(6
 /42=6) iop(6/43=20) #IOP(5/87=12) #density=current\\Coordinates from n
 h4_m6311_opt.chk\\1,1\H,0,-0.9511901362,0.3485378515,0.1529593238\N,0,
 -0.0000521583,0.0000900319,0.0000480136\H,0,0.1421598834,-0.8555191209
 ,0.5453650916\H,0,0.1331125627,-0.2038215436,-0.9950038301\H,0,0.67628
 27979,0.7101725894,0.2963433199\\Version=ES64L-G16RevA.03\State=1-A\HF
 =-56.9055988\RMSD=7.077e-09\Dipole=0.0001938,-0.0003508,-0.0001658\Qua
 drupole=0.0014374,-0.0001274,-0.00131,0.0000069,-0.0000016,0.0000435\P
 G=C01 [X(H4N1)]\\@


 WORK FAITHFULLY FOR EIGHT HOURS A DAY AND DON'T WORRY.
 IN TIME YOU MAY BECOME BOSS AND WORK TWELVE HOURS A DAY
 AND HAVE ALL THE WORRY.
 Job cpu time:       0 days  0 hours  1 minutes  9.7 seconds.
 Elapsed time:       0 days  0 hours  0 minutes  2.6 seconds.
 File lengths (MBytes):  RWF=      6 Int=      0 D2E=      0 Chk=      1 Scr=      1
 Normal termination of Gaussian 16 at Tue Feb 14 16:10:09 2023.
