 Entering Gaussian System, Link 0=g16
 Input=CH3NH2.com
 Output=CH3NH2.log
 Initial command:
 /home/zhuqiang/software/g16/l1.exe "/tmp/Gau-6794.inp" -scrdir="/tmp/"
 Entering Link 1 = /home/zhuqiang/software/g16/l1.exe PID=      6795.
  
 Copyright (c) 1988,1990,1992,1993,1995,1998,2003,2009,2016,
            Gaussian, Inc.  All Rights Reserved.
  
 This is part of the Gaussian(R) 16 program.  It is based on
 the Gaussian(R) 09 system (copyright 2009, Gaussian, Inc.),
 the Gaussian(R) 03 system (copyright 2003, Gaussian, Inc.),
 the Gaussian(R) 98 system (copyright 1998, Gaussian, Inc.),
 the Gaussian(R) 94 system (copyright 1995, Gaussian, Inc.),
 the Gaussian 92(TM) system (copyright 1992, Gaussian, Inc.),
 the Gaussian 90(TM) system (copyright 1990, Gaussian, Inc.),
 the Gaussian 88(TM) system (copyright 1988, Gaussian, Inc.),
 the Gaussian 86(TM) system (copyright 1986, Carnegie Mellon
 University), and the Gaussian 82(TM) system (copyright 1983,
 Carnegie Mellon University). Gaussian is a federally registered
 trademark of Gaussian, Inc.
  
 This software contains proprietary and confidential information,
 including trade secrets, belonging to Gaussian, Inc.
  
 This software is provided under written license and may be
 used, copied, transmitted, or stored only in accord with that
 written license.
  
 The following legend is applicable only to US Government
 contracts under FAR:
  
                    RESTRICTED RIGHTS LEGEND
  
 Use, reproduction and disclosure by the US Government is
 subject to restrictions as set forth in subparagraphs (a)
 and (c) of the Commercial Computer Software - Restricted
 Rights clause in FAR 52.227-19.
  
 Gaussian, Inc.
 340 Quinnipiac St., Bldg. 40, Wallingford CT 06492
  
  
 ---------------------------------------------------------------
 Warning -- This program may not be used in any manner that
 competes with the business of Gaussian, Inc. or will provide
 assistance to any competitor of Gaussian, Inc.  The licensee
 of this program is prohibited from giving any competitor of
 Gaussian, Inc. access to this program.  By using this program,
 the user acknowledges that Gaussian, Inc. is engaged in the
 business of creating and licensing software in the field of
 computational chemistry and represents and warrants to the
 licensee that it is not a competitor of Gaussian, Inc. and that
 it will not use this program in any manner prohibited above.
 ---------------------------------------------------------------
  

 Cite this work as:
 Gaussian 16, Revision A.03,
 M. J. Frisch, G. W. Trucks, H. B. Schlegel, G. E. Scuseria, 
 M. A. Robb, J. R. Cheeseman, G. Scalmani, V. Barone, 
 G. A. Petersson, H. Nakatsuji, X. Li, M. Caricato, A. V. Marenich, 
 J. Bloino, B. G. Janesko, R. Gomperts, B. Mennucci, H. P. Hratchian, 
 J. V. Ortiz, A. F. Izmaylov, J. L. Sonnenberg, D. Williams-Young, 
 F. Ding, F. Lipparini, F. Egidi, J. Goings, B. Peng, A. Petrone, 
 T. Henderson, D. Ranasinghe, V. G. Zakrzewski, J. Gao, N. Rega, 
 G. Zheng, W. Liang, M. Hada, M. Ehara, K. Toyota, R. Fukuda, 
 J. Hasegawa, M. Ishida, T. Nakajima, Y. Honda, O. Kitao, H. Nakai, 
 T. Vreven, K. Throssell, J. A. Montgomery, Jr., J. E. Peralta, 
 F. Ogliaro, M. J. Bearpark, J. J. Heyd, E. N. Brothers, K. N. Kudin, 
 V. N. Staroverov, T. A. Keith, R. Kobayashi, J. Normand, 
 K. Raghavachari, A. P. Rendell, J. C. Burant, S. S. Iyengar, 
 J. Tomasi, M. Cossi, J. M. Millam, M. Klene, C. Adamo, R. Cammi, 
 J. W. Ochterski, R. L. Martin, K. Morokuma, O. Farkas, 
 J. B. Foresman, and D. J. Fox, Gaussian, Inc., Wallingford CT, 2016.
 
 ******************************************
 Gaussian 16:  ES64L-G16RevA.03 25-Dec-2016
                14-Feb-2023 
 ******************************************
 %chk=CH3NH2_b3lyp_a2z_esp
 %nproc=28
 Will use up to   28 processors via shared memory.
 %mem=28GB
 ----------------------------------------------------------------------
 #b3lyp/aug-cc-pvdz #SCF=tight #maxdisk=200GB #Pop=MK iop(6/33=2) iop(6
 /42=6) iop(6/43=20) #IOP(5/87=12) #density=current
 ----------------------------------------------------------------------
 1/30=1,38=1,172=1/1;
 2/12=2,17=6,18=5,40=1/2;
 3/5=16,7=10,11=2,25=1,30=1,74=-5/1,2,3;
 4//1;
 5/5=2,32=2,38=5,87=12/2;
 6/7=2,8=2,9=2,10=2,15=8,20=1,22=-1,28=1,33=2,42=6,43=20/1,2;
 99/5=1,9=1/99;
 --------------------------------
 B2 MP2/6-311++G(d,p) coordinates
 --------------------------------
 Symbolic Z-matrix:
 Charge =  0 Multiplicity = 1
 C                    -0.7081   0.         0.01771 
 H                    -1.11296  -0.88051  -0.48627 
 H                    -1.07438  -0.00009   1.05363 
 H                    -1.11294   0.88061  -0.48611 
 N                     0.75029  0.        -0.12214 
 H                     1.14842   0.81365   0.33372 
 H                     1.14842  -0.81365   0.33372 
 
                          Input orientation:                          
 ---------------------------------------------------------------------
 Center     Atomic      Atomic             Coordinates (Angstroms)
 Number     Number       Type             X           Y           Z
 ---------------------------------------------------------------------
      1          6           0       -0.708096   -0.000001    0.017713
      2          1           0       -1.112964   -0.880514   -0.486271
      3          1           0       -1.074380   -0.000087    1.053630
      4          1           0       -1.112943    0.880611   -0.486114
      5          7           0        0.750288   -0.000001   -0.122137
      6          1           0        1.148420    0.813655    0.333718
      7          1           0        1.148425   -0.813654    0.333718
 ---------------------------------------------------------------------
                    Distance matrix (angstroms):
                    1          2          3          4          5
     1  C    0.000000
     2  H    1.092347   0.000000
     3  H    1.098767   1.774243   0.000000
     4  H    1.092347   1.761125   1.774241   0.000000
     5  N    1.465073   2.092750   2.170678   2.092747   0.000000
     6  H    2.051473   2.942184   2.474124   2.406319   1.014075
     7  H    2.051477   2.406394   2.474071   2.942184   1.014075
                    6          7
     6  H    0.000000
     7  H    1.627308   0.000000
 Stoichiometry    CH5N
 Framework group  C1[X(CH5N)]
 Deg. of freedom    15
 Full point group                 C1      NOp   1
 Largest Abelian subgroup         C1      NOp   1
 Largest concise Abelian subgroup C1      NOp   1
                         Standard orientation:                         
 ---------------------------------------------------------------------
 Center     Atomic      Atomic             Coordinates (Angstroms)
 Number     Number       Type             X           Y           Z
 ---------------------------------------------------------------------
      1          6           0       -0.708096   -0.000001    0.017713
      2          1           0       -1.112964   -0.880514   -0.486271
      3          1           0       -1.074380   -0.000087    1.053630
      4          1           0       -1.112943    0.880611   -0.486114
      5          7           0        0.750288   -0.000001   -0.122137
      6          1           0        1.148420    0.813655    0.333718
      7          1           0        1.148425   -0.813654    0.333718
 ---------------------------------------------------------------------
 Rotational constants (GHZ):         103.4341480          22.7642575          21.8691348
 Standard basis: Aug-CC-pVDZ (5D, 7F)
 There are    95 symmetry adapted cartesian basis functions of A   symmetry.
 There are    91 symmetry adapted basis functions of A   symmetry.
    91 basis functions,   141 primitive gaussians,    95 cartesian basis functions
     9 alpha electrons        9 beta electrons
       nuclear repulsion energy        41.9702332908 Hartrees.
 NAtoms=    7 NActive=    7 NUniq=    7 SFac= 1.00D+00 NAtFMM=   60 NAOKFM=F Big=F
 Integral buffers will be    131072 words long.
 Raffenetti 2 integral format.
 Two-electron integral symmetry is turned on.
 One-electron integrals computed using PRISM.
 NBasis=    91 RedAO= T EigKep=  5.09D-04  NBF=    91
 NBsUse=    91 1.00D-06 EigRej= -1.00D+00 NBFU=    91
 ExpMin= 2.97D-02 ExpMax= 9.05D+03 ExpMxC= 3.09D+02 IAcc=3 IRadAn=         5 AccDes= 0.00D+00
 Harris functional with IExCor=  402 and IRadAn=       5 diagonalized for initial guess.
 HarFok:  IExCor=  402 AccDes= 0.00D+00 IRadAn=         5 IDoV= 1 UseB2=F ITyADJ=14
 ICtDFT=  3500011 ScaDFX=  1.000000  1.000000  1.000000  1.000000
 FoFCou: FMM=F IPFlag=           0 FMFlag=      100000 FMFlg1=           0
         NFxFlg=           0 DoJE=T BraDBF=F KetDBF=T FulRan=T
         wScrn=  0.000000 ICntrl=       500 IOpCl=  0 I1Cent=   200000004 NGrid=           0
         NMat0=    1 NMatS0=      1 NMatT0=    0 NMatD0=    1 NMtDS0=    0 NMtDT0=    0
 Petite list used in FoFCou.
 Keep R1 ints in memory in canonical form, NReq=34445844.
 Requested convergence on RMS density matrix=1.00D-08 within 128 cycles.
 Requested convergence on MAX density matrix=1.00D-06.
 Requested convergence on             energy=1.00D-06.
 No special actions if energy rises.
 SCF Done:  E(RB3LYP) =  -95.8737849464     A.U. after   10 cycles
            NFock= 10  Conv=0.21D-08     -V/T= 2.0074
 SCF density gives NOpUse=  1 NOpAll=  1.

 **********************************************************************

            Population analysis using the SCF density.

 **********************************************************************

 Orbital symmetries:
 BldTbl:  Degeneracy threshold= 1.00D-02
       Occupied  (A) (A) (A) (A) (A) (A) (A) (A) (A)
       Virtual   (A) (A) (A) (A) (A) (A) (A) (A) (A) (A) (A) (A)
                 (A) (A) (A) (A) (A) (A) (A) (A) (A) (A) (A) (A)
                 (A) (A) (A) (A) (A) (A) (A) (A) (A) (A) (A) (A)
                 (A) (A) (A) (A) (A) (A) (A) (A) (A) (A) (A) (A)
                 (A) (A) (A) (A) (A) (A) (A) (A) (A) (A) (A) (A)
                 (A) (A) (A) (A) (A) (A) (A) (A) (A) (A) (A) (A)
                 (A) (A) (A) (A) (A) (A) (A) (A) (A) (A)
 The electronic state is 1-A.
 Alpha  occ. eigenvalues --  -14.31598 -10.20250  -0.87991  -0.66321  -0.49358
 Alpha  occ. eigenvalues --   -0.44306  -0.40585  -0.37150  -0.24438
 Alpha virt. eigenvalues --   -0.01276   0.00933   0.01924   0.02677   0.05031
 Alpha virt. eigenvalues --    0.06545   0.09780   0.09834   0.11027   0.11385
 Alpha virt. eigenvalues --    0.12456   0.13684   0.15964   0.18092   0.19424
 Alpha virt. eigenvalues --    0.19533   0.21999   0.24937   0.28990   0.29189
 Alpha virt. eigenvalues --    0.30924   0.34074   0.34297   0.35970   0.38225
 Alpha virt. eigenvalues --    0.40443   0.42769   0.44753   0.46275   0.48232
 Alpha virt. eigenvalues --    0.48473   0.49206   0.52492   0.52755   0.55561
 Alpha virt. eigenvalues --    0.55984   0.58275   0.58941   0.59676   0.68302
 Alpha virt. eigenvalues --    0.70721   0.74334   0.81663   0.85096   0.86865
 Alpha virt. eigenvalues --    0.89683   0.90776   1.01979   1.07300   1.13326
 Alpha virt. eigenvalues --    1.18006   1.34236   1.34340   1.48484   1.51180
 Alpha virt. eigenvalues --    1.63239   1.63607   1.65941   1.70618   1.79369
 Alpha virt. eigenvalues --    1.82098   1.85946   1.86160   1.90269   1.99889
 Alpha virt. eigenvalues --    2.02433   2.06485   2.09134   2.14185   2.17740
 Alpha virt. eigenvalues --    2.24455   2.31182   2.33834   2.41850   2.52296
 Alpha virt. eigenvalues --    2.53131   2.57584   2.67987   2.72799   2.75969
 Alpha virt. eigenvalues --    2.98498   3.25884
          Condensed to atoms (all electrons):
               1          2          3          4          5          6
     1  C    3.986979   0.292505   0.163426   0.292492   0.262097  -0.087147
     2  H    0.292505   1.744193  -0.303165  -0.320052  -0.118882   0.059667
     3  H    0.163426  -0.303165   1.744702  -0.303161   0.082395  -0.049884
     4  H    0.292492  -0.320052  -0.303161   1.744190  -0.118853  -0.029537
     5  N    0.262097  -0.118882   0.082395  -0.118853   6.293329   0.327048
     6  H   -0.087147   0.059667  -0.049884  -0.029537   0.327048   0.996000
     7  H   -0.087151  -0.029528  -0.049888   0.059663   0.327060  -0.121796
               7
     1  C   -0.087151
     2  H   -0.029528
     3  H   -0.049888
     4  H    0.059663
     5  N    0.327060
     6  H   -0.121796
     7  H    0.995995
 Mulliken charges:
               1
     1  C    1.176800
     2  H   -0.324737
     3  H   -0.284424
     4  H   -0.324742
     5  N   -0.054193
     6  H   -0.094350
     7  H   -0.094354
 Sum of Mulliken charges =  -0.00000
 Mulliken charges with hydrogens summed into heavy atoms:
               1
     1  C    0.242897
     5  N   -0.242897
 DipInt: DoE/N= T F RetVal/Mat= T F Init=T NMatP=  1 IDeriv=0 Min/MaxMlt=  0  4
 Entering OneElI...
 OneElI was handed  3758071432 working-precision words.
 Multipole integrals L=0 to 4 MinM= 0 MaxM= 0.
 Requested accuracy = 0.1000D-12
 ShPair: Thresh= 1.00D-13 NBox=     0 BxSize= 0.00D+00 RnKept= 5.56D+00
         NSMCal=                  946 NSMKep=                 946
 PrmmSu-InSpLW:  IPartL=    0 NPrtUS=    1 NPrtUL=    1 DoSpLW=F IThBeg=    0 IThEnd=    0 NThAct=    1.
 PrsmSu:  NPrtUS=   1 ThrOK=F IAlg=1 NPAlg=1 LenDen=           0 ISkipM=0 DoSpLW=F IThBeg=    0 IThEnd=    0.
 Prism:   IPart=     0 DynPar=F LinDyn=F Incr=           9.
 PRISM was handed  3758001311 working-precision words and   946 shell-pairs
 IPart=  0 NShTot=         946 NBatch=          33 AvBLen=        28.7
 PrsmSu-ThDecC:  IPartSL=    0    0 NPrtUSL=    1    1 IThBeg=    0 IThEnd=    0 CPU=   -1 GPU=   -1 NThAct=    1.
 PrSmSu:  NxtVal=             10.
 Electronic moments (au):
        -18.00000000         -0.10391250          0.00000382          0.50951345
        -57.83443429        -19.82417387        -18.51885998         -0.00002324
          1.52342483          0.00000753          4.77160250         -0.00130272
         -4.40715284          4.07127428          0.00025421         -0.19188644
          8.09425825          0.00121058          2.56065807          0.00005485
       -359.11309884        -92.88937889        -90.55667002         -0.00055152
          3.49704791          0.00241435          0.00002121         16.63900148
          0.00028025        -87.59679418        -78.90585224        -29.89415440
         -0.00022371        -11.68873420         -0.00260037
 Electronic spatial extent (au):  <R**2>=             96.1775
 DipInt: DoE/N= F T RetVal/Mat= T F Init=T NMatP=  1 IDeriv=0 Min/MaxMlt=  0  4
 Nuclear    moments (au):
         18.00000000          0.00000000          0.00000000         -0.00000000
         47.20337235         10.26626489          6.82767249          0.00000000
          0.00000000          0.00000000         -0.95663938          0.00153958
          6.75797504         -1.38583671         -0.00023594          3.13125408
         -9.35365493         -0.00140714         -2.10624736         -0.00007856
        148.01175730         26.51291647         17.47758694          0.00031615
          8.23724849         -0.00304364         -0.00002585        -11.79714939
         -0.00019354         46.76566608         28.31703567          6.55525587
          0.00030001         17.17239220          0.00296249
 Total      moments (au):
         -0.00000000         -0.10391250          0.00000382          0.50951345
        -10.63106195         -9.55790898        -11.69118749         -0.00002324
          1.52342483          0.00000753          3.81496313          0.00023686
          2.35082219          2.68543757          0.00001827          2.93936764
         -1.25939669         -0.00019655          0.45441071         -0.00002371
       -211.10134153        -66.37646242        -73.07908308         -0.00023537
         11.73429640         -0.00062929         -0.00000464          4.84185209
          0.00008671        -40.83112809        -50.58881657        -23.33889853
          0.00007630          5.48365800          0.00036212
 Traceless Quadrup. (au):
         -0.00434247          1.06881049         -1.06446802         -0.00002324
          1.52342483          0.00000753
 Charge=             -0.0000 electrons
 Dipole moment (field-independent basis, Debye):
    X=             -0.2641    Y=              0.0000    Z=              1.2951  Tot=              1.3217
 Quadrupole moment (field-independent basis, Debye-Ang):
   XX=            -14.2991   YY=            -12.8557   ZZ=            -15.7250
   XY=             -0.0000   XZ=              2.0491   YZ=              0.0000
 Traceless Quadrupole moment (field-independent basis, Debye-Ang):
   XX=             -0.0058   YY=              1.4376   ZZ=             -1.4317
   XY=             -0.0000   XZ=              2.0491   YZ=              0.0000
 Octapole moment (field-independent basis, Debye-Ang**2):
  XXX=              2.7153  YYY=              0.0002  ZZZ=              1.6732  XYY=              1.9114
  XXY=              0.0000  XXZ=              2.0921  XZZ=             -0.8964  YZZ=             -0.0001
  YYZ=              0.3234  XYZ=             -0.0000
 Hexadecapole moment (field-independent basis, Debye-Ang**3):
 XXXX=            -79.5109 YYYY=            -25.0006 ZZZZ=            -27.5251 XXXY=             -0.0001
 XXXZ=              4.4197 YYYX=             -0.0002 YYYZ=             -0.0000 ZZZX=              1.8237
 ZZZY=              0.0000 XXYY=            -15.3790 XXZZ=            -19.0542 YYZZ=             -8.7905
 XXYZ=              0.0000 YYXZ=              2.0654 ZZXY=              0.0001
 N-N= 4.197023329079D+01 E-N=-3.065557327835D+02  KE= 9.517052834938D+01
 Entering OneElI...
 OneElI was handed  3758076463 working-precision words.
 Calculate electrostatic properties
    NBasis =    91  MinDer = 0  MaxDer = 0
    NGrid  =     7  NMatD  =   1
 Requested accuracy = 0.1000D-12
 ShPair: Thresh= 1.00D-13 NBox=     0 BxSize= 0.00D+00 RnKept= 5.56D+00
         NSMCal=                  946 NSMKep=                 946
 PrmmSu-InSpLW:  IPartL=    0 NPrtUS=   28 NPrtUL=    1 DoSpLW=F IThBeg=    0 IThEnd=   27 NThAct=   28.
 PrsmSu:  NPrtUS=  28 ThrOK=T IAlg=1 NPAlg=1 LenDen=           0 ISkipM=0 DoSpLW=F IThBeg=    0 IThEnd=   27.
 Prism:   IPart=     0 DynPar=F LinDyn=F Incr=           2.
 PRISM was handed   134190101 working-precision words and   946 shell-pairs
 PRISM was handed   134190101 working-precision words and   946 shell-pairs
 PRISM was handed   134190101 working-precision words and   946 shell-pairs
 PRISM was handed   134190101 working-precision words and   946 shell-pairs
 PRISM was handed   134190101 working-precision words and   946 shell-pairs
 PRISM was handed   134190101 working-precision words and   946 shell-pairs
 PRISM was handed   134190101 working-precision words and   946 shell-pairs
 PRISM was handed   134190101 working-precision words and   946 shell-pairs
 PRISM was handed   134190101 working-precision words and   946 shell-pairs
 PRISM was handed   134190101 working-precision words and   946 shell-pairs
 PRISM was handed   134190101 working-precision words and   946 shell-pairs
 PRISM was handed   134190101 working-precision words and   946 shell-pairs
 PRISM was handed   134190101 working-precision words and   946 shell-pairs
 PRISM was handed   134190101 working-precision words and   946 shell-pairs
 PRISM was handed   134190101 working-precision words and   946 shell-pairs
 PRISM was handed   134190101 working-precision words and   946 shell-pairs
 PRISM was handed   134190101 working-precision words and   946 shell-pairs
 PRISM was handed   134190101 working-precision words and   946 shell-pairs
 PRISM was handed   134190101 working-precision words and   946 shell-pairs
 PRISM was handed   134190101 working-precision words and   946 shell-pairs
 PRISM was handed   134190101 working-precision words and   946 shell-pairs
 PRISM was handed   134190101 working-precision words and   946 shell-pairs
 PRISM was handed   134190101 working-precision words and   946 shell-pairs
 PRISM was handed   134190101 working-precision words and   946 shell-pairs
 PRISM was handed   134190101 working-precision words and   946 shell-pairs
 PRISM was handed   134190101 working-precision words and   946 shell-pairs
 PRISM was handed   134190101 working-precision words and   946 shell-pairs
 PRISM was handed   134190101 working-precision words and   946 shell-pairs
 IPart= 12 NShTot=         231 NBatch=          33 AvBLen=         7.0
 PrsmSu-ThDecC:  IPartSL=   12    0 NPrtUSL=   28    1 IThBeg=    0 IThEnd=   27 CPU=   -1 GPU=   -1 NThAct=   28.
 IPart=  6 NShTot=         252 NBatch=          36 AvBLen=         7.0
 PrsmSu-ThDecC:  IPartSL=    6    0 NPrtUSL=   28    1 IThBeg=    0 IThEnd=   27 CPU=   -1 GPU=   -1 NThAct=   27.
 IPart=  9 NShTot=         238 NBatch=          34 AvBLen=         7.0
 PrsmSu-ThDecC:  IPartSL=    9    0 NPrtUSL=   28    1 IThBeg=    0 IThEnd=   27 CPU=   -1 GPU=   -1 NThAct=   26.
 IPart= 17 NShTot=         210 NBatch=          30 AvBLen=         7.0
 PrsmSu-ThDecC:  IPartSL=   17    0 NPrtUSL=   28    1 IThBeg=    0 IThEnd=   27 CPU=   -1 GPU=   -1 NThAct=   25.
 IPart= 26 NShTot=         189 NBatch=          27 AvBLen=         7.0
 PrsmSu-ThDecC:  IPartSL=   26    0 NPrtUSL=   28    1 IThBeg=    0 IThEnd=   27 CPU=   -1 GPU=   -1 NThAct=   24.
 IPart=  7 NShTot=         252 NBatch=          36 AvBLen=         7.0
 PrsmSu-ThDecC:  IPartSL=    7    0 NPrtUSL=   28    1 IThBeg=    0 IThEnd=   27 CPU=   -1 GPU=   -1 NThAct=   23.
 IPart=  4 NShTot=         280 NBatch=          40 AvBLen=         7.0
 PrsmSu-ThDecC:  IPartSL=    4    0 NPrtUSL=   28    1 IThBeg=    0 IThEnd=   27 CPU=   -1 GPU=   -1 NThAct=   22.
 IPart= 16 NShTot=         210 NBatch=          30 AvBLen=         7.0
 PrsmSu-ThDecC:  IPartSL=   16    0 NPrtUSL=   28    1 IThBeg=    0 IThEnd=   27 CPU=   -1 GPU=   -1 NThAct=   21.
 IPart= 14 NShTot=         217 NBatch=          31 AvBLen=         7.0
 PrsmSu-ThDecC:  IPartSL=   14    0 NPrtUSL=   28    1 IThBeg=    0 IThEnd=   27 CPU=   -1 GPU=   -1 NThAct=   20.
 IPart=  8 NShTot=         245 NBatch=          35 AvBLen=         7.0
 PrsmSu-ThDecC:  IPartSL=    8    0 NPrtUSL=   28    1 IThBeg=    0 IThEnd=   27 CPU=   -1 GPU=   -1 NThAct=   19.
 IPart= 10 NShTot=         231 NBatch=          33 AvBLen=         7.0
 PrsmSu-ThDecC:  IPartSL=   10    0 NPrtUSL=   28    1 IThBeg=    0 IThEnd=   27 CPU=   -1 GPU=   -1 NThAct=   18.
 IPart= 13 NShTot=         231 NBatch=          33 AvBLen=         7.0
 PrsmSu-ThDecC:  IPartSL=   13    0 NPrtUSL=   28    1 IThBeg=    0 IThEnd=   27 CPU=   -1 GPU=   -1 NThAct=   17.
 IPart=  2 NShTot=         315 NBatch=          45 AvBLen=         7.0
 PrsmSu-ThDecC:  IPartSL=    2    0 NPrtUSL=   28    1 IThBeg=    0 IThEnd=   27 CPU=   -1 GPU=   -1 NThAct=   16.
 IPart=  1 NShTot=         357 NBatch=          51 AvBLen=         7.0
 PrsmSu-ThDecC:  IPartSL=    1    0 NPrtUSL=   28    1 IThBeg=    0 IThEnd=   27 CPU=   -1 GPU=   -1 NThAct=   15.
 IPart=  3 NShTot=         308 NBatch=          44 AvBLen=         7.0
 PrsmSu-ThDecC:  IPartSL=    3    0 NPrtUSL=   28    1 IThBeg=    0 IThEnd=   27 CPU=   -1 GPU=   -1 NThAct=   14.
 IPart=  0 NShTot=         392 NBatch=          56 AvBLen=         7.0
 PrsmSu-ThDecC:  IPartSL=    0    0 NPrtUSL=   28    1 IThBeg=    0 IThEnd=   27 CPU=   -1 GPU=   -1 NThAct=   13.
 IPart= 23 NShTot=         189 NBatch=          27 AvBLen=         7.0
 PrsmSu-ThDecC:  IPartSL=   23    0 NPrtUSL=   28    1 IThBeg=    0 IThEnd=   27 CPU=   -1 GPU=   -1 NThAct=   12.
 IPart= 15 NShTot=         217 NBatch=          31 AvBLen=         7.0
 PrsmSu-ThDecC:  IPartSL=   15    0 NPrtUSL=   28    1 IThBeg=    0 IThEnd=   27 CPU=   -1 GPU=   -1 NThAct=   11.
 IPart= 20 NShTot=         203 NBatch=          29 AvBLen=         7.0
 PrsmSu-ThDecC:  IPartSL=   20    0 NPrtUSL=   28    1 IThBeg=    0 IThEnd=   27 CPU=   -1 GPU=   -1 NThAct=   10.
 IPart=  5 NShTot=         259 NBatch=          37 AvBLen=         7.0
 PrsmSu-ThDecC:  IPartSL=    5    0 NPrtUSL=   28    1 IThBeg=    0 IThEnd=   27 CPU=   -1 GPU=   -1 NThAct=    9.
 IPart= 19 NShTot=         210 NBatch=          30 AvBLen=         7.0
 PrsmSu-ThDecC:  IPartSL=   19    0 NPrtUSL=   28    1 IThBeg=    0 IThEnd=   27 CPU=   -1 GPU=   -1 NThAct=    8.
 IPart= 18 NShTot=         210 NBatch=          30 AvBLen=         7.0
 PrsmSu-ThDecC:  IPartSL=   18    0 NPrtUSL=   28    1 IThBeg=    0 IThEnd=   27 CPU=   -1 GPU=   -1 NThAct=    7.
 IPart= 21 NShTot=         189 NBatch=          27 AvBLen=         7.0
 PrsmSu-ThDecC:  IPartSL=   21    0 NPrtUSL=   28    1 IThBeg=    0 IThEnd=   27 CPU=   -1 GPU=   -1 NThAct=    6.
 IPart= 25 NShTot=         189 NBatch=          27 AvBLen=         7.0
 PrsmSu-ThDecC:  IPartSL=   25    0 NPrtUSL=   28    1 IThBeg=    0 IThEnd=   27 CPU=   -1 GPU=   -1 NThAct=    5.
 IPart= 22 NShTot=         189 NBatch=          27 AvBLen=         7.0
 PrsmSu-ThDecC:  IPartSL=   22    0 NPrtUSL=   28    1 IThBeg=    0 IThEnd=   27 CPU=   -1 GPU=   -1 NThAct=    4.
 IPart= 11 NShTot=         231 NBatch=          33 AvBLen=         7.0
 PrsmSu-ThDecC:  IPartSL=   11    0 NPrtUSL=   28    1 IThBeg=    0 IThEnd=   27 CPU=   -1 GPU=   -1 NThAct=    3.
 IPart= 24 NShTot=         189 NBatch=          27 AvBLen=         7.0
 PrsmSu-ThDecC:  IPartSL=   24    0 NPrtUSL=   28    1 IThBeg=    0 IThEnd=   27 CPU=   -1 GPU=   -1 NThAct=    2.
 IPart= 27 NShTot=         189 NBatch=          27 AvBLen=         7.0
 PrsmSu-ThDecC:  IPartSL=   27    0 NPrtUSL=   28    1 IThBeg=    0 IThEnd=   27 CPU=   -1 GPU=   -1 NThAct=    1.
 PrSmSu:  NxtVal=             57.
 --------------------------------------------------------
       Center         ----      EFG at Nuclei      ----
                      3XX-RR        3YY-RR        3ZZ-RR
 --------------------------------------------------------
     1   Atom       -0.188792      0.107049      0.081743
     2   Atom        0.081575     -0.143529      0.061954
     3   Atom        0.093967      0.153636     -0.247602
     4   Atom        0.081581     -0.143596      0.062015
     5   Atom       -0.489017     -0.427130      0.916147
     6   Atom        0.086951     -0.194782      0.107830
     7   Atom        0.086949     -0.194779      0.107830
 --------------------------------------------------------
                        XY            XZ            YZ
 --------------------------------------------------------
     1   Atom        0.000003      0.024906      0.000003
     2   Atom       -0.135122     -0.076998     -0.172062
     3   Atom       -0.000011      0.134304      0.000034
     4   Atom        0.135130     -0.076970      0.172027
     5   Atom        0.000001     -0.338131     -0.000004
     6   Atom       -0.171469     -0.115491     -0.212416
     7   Atom        0.171471     -0.115492      0.212415
 --------------------------------------------------------


 ---------------------------------------------------------------------------------
              Nuclear Quadrupole Coupling Constant in Principal Axis System
 ---------------------------------------------------------------------------------

       Atom             a.u.   MegaHertz   Gauss  10(-4) cm-1        Axes

              Baa    -0.5661     2.719     0.970     0.907  0.9750  0.0000  0.2224
     5 N(14)  Bbb    -0.4271     2.051     0.732     0.684 -0.0000  1.0000  0.0000
              Bcc     0.9933    -4.770    -1.702    -1.591 -0.2224 -0.0000  0.9750
 

 ---------------------------------------------------------------------------------

 No NMR shielding tensors so no spin-rotation constants.
 Leave Link  601 at Tue Feb 14 16:33:59 2023, MaxMem=  3758096384 cpu:               5.4 elap:               0.2
 FitSet:  NAtFit=     7 NAtPot=     7 NAtFrz=     0 MDM=    11 TotChg=   0.00000
 Merz-Kollman atomic radii used.
 Atom Element Radius
    1     6    1.50
    2     1    1.20
    3     1    1.20
    4     1    1.20
    5     7    1.50
    6     1    1.20
    7     1    1.20
 Generate VDW surfaces: Layer= 4 Dens= 6 Start= 1.400 Inc= 0.200

 **********************************************************************

            Electrostatic Properties Using The SCF Density

 **********************************************************************

       Atomic Center    1 is at  -0.708096 -0.000001  0.017713
       Atomic Center    2 is at  -1.112964 -0.880514 -0.486271
       Atomic Center    3 is at  -1.074380 -0.000087  1.053630
       Atomic Center    4 is at  -1.112943  0.880611 -0.486114
       Atomic Center    5 is at   0.750288 -0.000001 -0.122137
       Atomic Center    6 is at   1.148420  0.813655  0.333718
       Atomic Center    7 is at   1.148425 -0.813654  0.333718
      ESP Fit Center    8 is at  -0.091236  1.350734  1.502637
      ESP Fit Center    9 is at  -0.091236 -1.350735  1.502637
      ESP Fit Center   10 is at  -0.088925  1.632618  1.184410
      ESP Fit Center   11 is at  -0.497628  1.733354  1.184410
      ESP Fit Center   12 is at  -0.918563  1.733354  1.184410
      ESP Fit Center   13 is at  -0.918563 -1.733356  1.184410
      ESP Fit Center   14 is at  -0.497628 -1.733356  1.184410
      ESP Fit Center   15 is at  -0.088925 -1.632620  1.184410
      ESP Fit Center   16 is at  -0.189051  1.869428  0.821348
      ESP Fit Center   17 is at  -0.603058  1.937301  0.821348
      ESP Fit Center   18 is at  -2.116633  1.334237  0.821348
      ESP Fit Center   19 is at  -2.116633 -1.334239  0.821348
      ESP Fit Center   20 is at  -0.603058 -1.937303  0.821348
      ESP Fit Center   21 is at  -0.189051 -1.869430  0.821348
      ESP Fit Center   22 is at  -2.673288  0.616582  0.427402
      ESP Fit Center   23 is at  -2.757177  0.208370  0.427402
      ESP Fit Center   24 is at  -2.757177 -0.208372  0.427402
      ESP Fit Center   25 is at  -2.673288 -0.616584  0.427402
      ESP Fit Center   26 is at  -2.767745  0.409689  0.017713
      ESP Fit Center   27 is at  -2.808096 -0.000001  0.017713
      ESP Fit Center   28 is at  -2.767745 -0.409691  0.017713
      ESP Fit Center   29 is at  -2.757177  0.208370 -0.391977
      ESP Fit Center   30 is at  -2.757177 -0.208372 -0.391977
      ESP Fit Center   31 is at  -2.636869  0.209766 -0.785922
      ESP Fit Center   32 is at  -2.636869 -0.209768 -0.785922
      ESP Fit Center   33 is at  -2.454182 -0.000001 -1.148985
      ESP Fit Center   34 is at  -2.193020 -0.000001 -1.467211
      ESP Fit Center   35 is at  -1.511731 -0.000001 -1.922434
      ESP Fit Center   36 is at  -0.298406 -0.000001 -2.041936
      ESP Fit Center   37 is at  -0.503251  0.354801 -2.041936
      ESP Fit Center   38 is at  -1.117785 -0.000001 -2.041936
      ESP Fit Center   39 is at  -0.503251 -0.354803 -2.041936
      ESP Fit Center   40 is at  -0.708096 -0.000001 -2.082287
      ESP Fit Center   41 is at  -2.122970 -1.505883  0.701668
      ESP Fit Center   42 is at  -1.828857 -1.828510  0.701668
      ESP Fit Center   43 is at  -1.438059 -2.023104  0.701668
      ESP Fit Center   44 is at  -1.003355 -2.063386  0.701668
      ESP Fit Center   45 is at  -2.551636 -1.097359  0.353729
      ESP Fit Center   46 is at  -2.423804 -1.511781  0.353729
      ESP Fit Center   47 is at  -2.179498 -1.870113  0.353729
      ESP Fit Center   48 is at  -1.840425 -2.140514  0.353729
      ESP Fit Center   49 is at  -1.436715 -2.298959  0.353729
      ESP Fit Center   50 is at  -1.004237 -2.331368  0.353729
      ESP Fit Center   51 is at  -0.581421 -2.234863  0.353729
      ESP Fit Center   52 is at  -0.205834 -2.018018  0.353729
      ESP Fit Center   53 is at  -2.735719 -0.880514 -0.051455
      ESP Fit Center   54 is at  -2.680425 -1.300514 -0.051455
      ESP Fit Center   55 is at  -2.518311 -1.691892 -0.051455
      ESP Fit Center   56 is at  -2.260425 -2.027975 -0.051455
      ESP Fit Center   57 is at  -1.924342 -2.285861 -0.051455
      ESP Fit Center   58 is at  -1.532964 -2.447975 -0.051455
      ESP Fit Center   59 is at  -1.112964 -2.503269 -0.051455
      ESP Fit Center   60 is at  -0.692964 -2.447975 -0.051455
      ESP Fit Center   61 is at  -0.301586 -2.285861 -0.051455
      ESP Fit Center   62 is at   0.034497 -2.027975 -0.051455
      ESP Fit Center   63 is at  -2.779717 -0.669954 -0.486271
      ESP Fit Center   64 is at  -2.779717 -1.091074 -0.486271
      ESP Fit Center   65 is at  -2.674988 -1.498963 -0.486271
      ESP Fit Center   66 is at  -2.472112 -1.867993 -0.486271
      ESP Fit Center   67 is at  -2.183836 -2.174976 -0.486271
      ESP Fit Center   68 is at  -1.828273 -2.400623 -0.486271
      ESP Fit Center   69 is at  -1.427764 -2.530756 -0.486271
      ESP Fit Center   70 is at  -1.007476 -2.557199 -0.486271
      ESP Fit Center   71 is at  -0.593815 -2.478289 -0.486271
      ESP Fit Center   72 is at  -0.212775 -2.298985 -0.486271
      ESP Fit Center   73 is at   0.111703 -2.030553 -0.486271
      ESP Fit Center   74 is at  -2.680425 -0.460514 -0.921087
      ESP Fit Center   75 is at  -2.735719 -0.880514 -0.921087
      ESP Fit Center   76 is at  -2.680425 -1.300514 -0.921087
      ESP Fit Center   77 is at  -2.518311 -1.691892 -0.921087
      ESP Fit Center   78 is at  -2.260425 -2.027975 -0.921087
      ESP Fit Center   79 is at  -1.924342 -2.285861 -0.921087
      ESP Fit Center   80 is at  -1.532964 -2.447975 -0.921087
      ESP Fit Center   81 is at  -1.112964 -2.503269 -0.921087
      ESP Fit Center   82 is at  -0.692964 -2.447975 -0.921087
      ESP Fit Center   83 is at  -0.301586 -2.285861 -0.921087
      ESP Fit Center   84 is at   0.034497 -2.027975 -0.921087
      ESP Fit Center   85 is at  -2.423804 -0.249247 -1.326271
      ESP Fit Center   86 is at  -2.551636 -0.663669 -1.326271
      ESP Fit Center   87 is at  -2.551636 -1.097359 -1.326271
      ESP Fit Center   88 is at  -2.423804 -1.511781 -1.326271
      ESP Fit Center   89 is at  -2.179498 -1.870113 -1.326271
      ESP Fit Center   90 is at  -1.840425 -2.140514 -1.326271
      ESP Fit Center   91 is at  -1.436715 -2.298959 -1.326271
      ESP Fit Center   92 is at  -1.004237 -2.331368 -1.326271
      ESP Fit Center   93 is at  -0.581421 -2.234863 -1.326271
      ESP Fit Center   94 is at  -0.205834 -2.018018 -1.326271
      ESP Fit Center   95 is at   0.089150 -1.700101 -1.326271
      ESP Fit Center   96 is at  -2.122970 -0.255144 -1.674211
      ESP Fit Center   97 is at  -2.280676 -0.662231 -1.674211
      ESP Fit Center   98 is at  -2.280676 -1.098797 -1.674211
      ESP Fit Center   99 is at  -2.122970 -1.505883 -1.674211
      ESP Fit Center  100 is at  -1.828857 -1.828510 -1.674211
      ESP Fit Center  101 is at  -1.438059 -2.023104 -1.674211
      ESP Fit Center  102 is at  -1.003355 -2.063386 -1.674211
      ESP Fit Center  103 is at  -0.583454 -1.943914 -1.674211
      ESP Fit Center  104 is at  -0.235066 -1.680823 -1.674211
      ESP Fit Center  105 is at  -0.005243 -1.309647 -1.674211
      ESP Fit Center  106 is at  -0.272964 -0.880514 -1.941194
      ESP Fit Center  107 is at  -1.532964 -0.153053 -1.941194
      ESP Fit Center  108 is at  -1.840425 -0.460514 -1.941194
      ESP Fit Center  109 is at  -1.952964 -0.880514 -1.941194
      ESP Fit Center  110 is at  -1.840425 -1.300514 -1.941194
      ESP Fit Center  111 is at  -1.532964 -1.607975 -1.941194
      ESP Fit Center  112 is at  -1.112964 -1.720514 -1.941194
      ESP Fit Center  113 is at  -0.692964 -1.607975 -1.941194
      ESP Fit Center  114 is at  -0.385503 -1.300514 -1.941194
      ESP Fit Center  115 is at  -0.678148 -0.880514 -2.109027
      ESP Fit Center  116 is at  -0.895556 -0.503952 -2.109027
      ESP Fit Center  117 is at  -1.330372 -0.503952 -2.109027
      ESP Fit Center  118 is at  -1.547780 -0.880514 -2.109027
      ESP Fit Center  119 is at  -1.330372 -1.257076 -2.109027
      ESP Fit Center  120 is at  -0.895556 -1.257076 -2.109027
      ESP Fit Center  121 is at  -1.112964 -0.880514 -2.166271
      ESP Fit Center  122 is at  -1.074380 -0.000087  2.733630
      ESP Fit Center  123 is at  -0.639564 -0.000087  2.676386
      ESP Fit Center  124 is at  -0.856972  0.376474  2.676386
      ESP Fit Center  125 is at  -1.291788  0.376474  2.676386
      ESP Fit Center  126 is at  -1.509196 -0.000087  2.676386
      ESP Fit Center  127 is at  -1.291788 -0.376649  2.676386
      ESP Fit Center  128 is at  -0.856972 -0.376649  2.676386
      ESP Fit Center  129 is at  -0.234380 -0.000087  2.508553
      ESP Fit Center  130 is at  -0.346918  0.419913  2.508553
      ESP Fit Center  131 is at  -0.654380  0.727374  2.508553
      ESP Fit Center  132 is at  -1.074380  0.839913  2.508553
      ESP Fit Center  133 is at  -1.494380  0.727374  2.508553
      ESP Fit Center  134 is at  -1.801841  0.419913  2.508553
      ESP Fit Center  135 is at  -1.914380 -0.000087  2.508553
      ESP Fit Center  136 is at  -1.801841 -0.420087  2.508553
      ESP Fit Center  137 is at  -1.494380 -0.727549  2.508553
      ESP Fit Center  138 is at  -1.074380 -0.840087  2.508553
      ESP Fit Center  139 is at  -0.654380 -0.727549  2.508553
      ESP Fit Center  140 is at  -0.346918 -0.420087  2.508553
      ESP Fit Center  141 is at   0.113560 -0.000087  2.241570
      ESP Fit Center  142 is at   0.033341  0.429046  2.241570
      ESP Fit Center  143 is at  -0.196482  0.800222  2.241570
      ESP Fit Center  144 is at  -0.544870  1.063312  2.241570
      ESP Fit Center  145 is at  -0.964771  1.182784  2.241570
      ESP Fit Center  146 is at  -1.399475  1.142503  2.241570
      ESP Fit Center  147 is at  -1.790273  0.947909  2.241570
      ESP Fit Center  148 is at  -2.084386  0.625282  2.241570
      ESP Fit Center  149 is at  -2.242092  0.218196  2.241570
      ESP Fit Center  150 is at  -2.242092 -0.218371  2.241570
      ESP Fit Center  151 is at  -2.084386 -0.625457  2.241570
      ESP Fit Center  152 is at  -1.790273 -0.948083  2.241570
      ESP Fit Center  153 is at  -1.399475 -1.142678  2.241570
      ESP Fit Center  154 is at  -0.964771 -1.182959  2.241570
      ESP Fit Center  155 is at  -0.544870 -1.063487  2.241570
      ESP Fit Center  156 is at  -0.196482 -0.800397  2.241570
      ESP Fit Center  157 is at   0.033341 -0.429221  2.241570
      ESP Fit Center  158 is at   0.315905  0.428759  1.893630
      ESP Fit Center  159 is at   0.127734  0.819500  1.893630
      ESP Fit Center  160 is at  -0.167250  1.137417  1.893630
      ESP Fit Center  161 is at  -0.542837  1.354262  1.893630
      ESP Fit Center  162 is at  -0.965653  1.450767  1.893630
      ESP Fit Center  163 is at  -1.398131  1.418357  1.893630
      ESP Fit Center  164 is at  -1.801841  1.259913  1.893630
      ESP Fit Center  165 is at  -2.140914  0.989511  1.893630
      ESP Fit Center  166 is at  -2.385220  0.631180  1.893630
      ESP Fit Center  167 is at  -2.513052  0.216758  1.893630
      ESP Fit Center  168 is at  -2.513052 -0.216932  1.893630
      ESP Fit Center  169 is at  -2.385220 -0.631355  1.893630
      ESP Fit Center  170 is at  -2.140914 -0.989686  1.893630
      ESP Fit Center  171 is at  -1.801841 -1.260087  1.893630
      ESP Fit Center  172 is at  -1.398131 -1.418532  1.893630
      ESP Fit Center  173 is at  -0.965653 -1.450942  1.893630
      ESP Fit Center  174 is at  -0.542837 -1.354437  1.893630
      ESP Fit Center  175 is at  -0.167250 -1.137592  1.893630
      ESP Fit Center  176 is at   0.127734 -0.819675  1.893630
      ESP Fit Center  177 is at   0.315905 -0.428933  1.893630
      ESP Fit Center  178 is at  -0.654380  1.567374  1.488446
      ESP Fit Center  179 is at  -1.074380  1.622668  1.488446
      ESP Fit Center  180 is at  -1.494380  1.567374  1.488446
      ESP Fit Center  181 is at  -1.885758  1.405260  1.488446
      ESP Fit Center  182 is at  -2.221841  1.147374  1.488446
      ESP Fit Center  183 is at  -2.479727  0.811290  1.488446
      ESP Fit Center  184 is at  -2.641841  0.419913  1.488446
      ESP Fit Center  185 is at  -2.697135 -0.000087  1.488446
      ESP Fit Center  186 is at  -2.641841 -0.420087  1.488446
      ESP Fit Center  187 is at  -2.479727 -0.811465  1.488446
      ESP Fit Center  188 is at  -2.221841 -1.147549  1.488446
      ESP Fit Center  189 is at  -1.885758 -1.405435  1.488446
      ESP Fit Center  190 is at  -1.494380 -1.567549  1.488446
      ESP Fit Center  191 is at  -1.074380 -1.622843  1.488446
      ESP Fit Center  192 is at  -0.654380 -1.567549  1.488446
      ESP Fit Center  193 is at  -1.789689  1.520022  1.053630
      ESP Fit Center  194 is at  -2.145252  1.294375  1.053630
      ESP Fit Center  195 is at  -2.433528  0.987392  1.053630
      ESP Fit Center  196 is at  -2.636404  0.618362  1.053630
      ESP Fit Center  197 is at  -2.741133  0.210472  1.053630
      ESP Fit Center  198 is at  -2.741133 -0.210647  1.053630
      ESP Fit Center  199 is at  -2.636404 -0.618537  1.053630
      ESP Fit Center  200 is at  -2.433528 -0.987567  1.053630
      ESP Fit Center  201 is at  -2.145252 -1.294550  1.053630
      ESP Fit Center  202 is at  -1.789689 -1.520197  1.053630
      ESP Fit Center  203 is at  -1.003334  2.063483  0.701825
      ESP Fit Center  204 is at  -1.438039  2.023202  0.701825
      ESP Fit Center  205 is at  -1.828837  1.828607  0.701825
      ESP Fit Center  206 is at  -2.122950  1.505981  0.701825
      ESP Fit Center  207 is at  -0.205814  2.018115  0.353886
      ESP Fit Center  208 is at  -0.581401  2.234960  0.353886
      ESP Fit Center  209 is at  -1.004217  2.331466  0.353886
      ESP Fit Center  210 is at  -1.436694  2.299056  0.353886
      ESP Fit Center  211 is at  -1.840405  2.140611  0.353886
      ESP Fit Center  212 is at  -2.179477  1.870210  0.353886
      ESP Fit Center  213 is at  -2.423783  1.511878  0.353886
      ESP Fit Center  214 is at  -2.551616  1.097456  0.353886
      ESP Fit Center  215 is at   0.034518  2.028072 -0.051298
      ESP Fit Center  216 is at  -0.301566  2.285959 -0.051298
      ESP Fit Center  217 is at  -0.692943  2.448072 -0.051298
      ESP Fit Center  218 is at  -1.112943  2.503367 -0.051298
      ESP Fit Center  219 is at  -1.532943  2.448072 -0.051298
      ESP Fit Center  220 is at  -1.924321  2.285959 -0.051298
      ESP Fit Center  221 is at  -2.260405  2.028072 -0.051298
      ESP Fit Center  222 is at  -2.518291  1.691989 -0.051298
      ESP Fit Center  223 is at  -2.680405  1.300611 -0.051298
      ESP Fit Center  224 is at  -2.735699  0.880611 -0.051298
      ESP Fit Center  225 is at   0.111724  2.030650 -0.486114
      ESP Fit Center  226 is at  -0.212754  2.299082 -0.486114
      ESP Fit Center  227 is at  -0.593795  2.478386 -0.486114
      ESP Fit Center  228 is at  -1.007455  2.557296 -0.486114
      ESP Fit Center  229 is at  -1.427744  2.530854 -0.486114
      ESP Fit Center  230 is at  -1.828253  2.400721 -0.486114
      ESP Fit Center  231 is at  -2.183816  2.175073 -0.486114
      ESP Fit Center  232 is at  -2.472092  1.868090 -0.486114
      ESP Fit Center  233 is at  -2.674968  1.499060 -0.486114
      ESP Fit Center  234 is at  -2.779696  1.091171 -0.486114
      ESP Fit Center  235 is at  -2.779696  0.670051 -0.486114
      ESP Fit Center  236 is at   0.034518  2.028072 -0.920930
      ESP Fit Center  237 is at  -0.301566  2.285959 -0.920930
      ESP Fit Center  238 is at  -0.692943  2.448072 -0.920930
      ESP Fit Center  239 is at  -1.112943  2.503367 -0.920930
      ESP Fit Center  240 is at  -1.532943  2.448072 -0.920930
      ESP Fit Center  241 is at  -1.924321  2.285959 -0.920930
      ESP Fit Center  242 is at  -2.260405  2.028072 -0.920930
      ESP Fit Center  243 is at  -2.518291  1.691989 -0.920930
      ESP Fit Center  244 is at  -2.680405  1.300611 -0.920930
      ESP Fit Center  245 is at  -2.735699  0.880611 -0.920930
      ESP Fit Center  246 is at  -2.680405  0.460611 -0.920930
      ESP Fit Center  247 is at   0.089170  1.700198 -1.326114
      ESP Fit Center  248 is at  -0.205814  2.018115 -1.326114
      ESP Fit Center  249 is at  -0.581401  2.234960 -1.326114
      ESP Fit Center  250 is at  -1.004217  2.331466 -1.326114
      ESP Fit Center  251 is at  -1.436694  2.299056 -1.326114
      ESP Fit Center  252 is at  -1.840405  2.140611 -1.326114
      ESP Fit Center  253 is at  -2.179477  1.870210 -1.326114
      ESP Fit Center  254 is at  -2.423783  1.511878 -1.326114
      ESP Fit Center  255 is at  -2.551616  1.097456 -1.326114
      ESP Fit Center  256 is at  -2.551616  0.663766 -1.326114
      ESP Fit Center  257 is at  -2.423783  0.249344 -1.326114
      ESP Fit Center  258 is at  -0.005223  1.309744 -1.674053
      ESP Fit Center  259 is at  -0.235046  1.680921 -1.674053
      ESP Fit Center  260 is at  -0.583433  1.944011 -1.674053
      ESP Fit Center  261 is at  -1.003334  2.063483 -1.674053
      ESP Fit Center  262 is at  -1.438039  2.023202 -1.674053
      ESP Fit Center  263 is at  -1.828837  1.828607 -1.674053
      ESP Fit Center  264 is at  -2.122950  1.505981 -1.674053
      ESP Fit Center  265 is at  -2.280656  1.098894 -1.674053
      ESP Fit Center  266 is at  -2.280656  0.662328 -1.674053
      ESP Fit Center  267 is at  -2.122950  0.255242 -1.674053
      ESP Fit Center  268 is at  -0.272943  0.880611 -1.941037
      ESP Fit Center  269 is at  -0.385482  1.300611 -1.941037
      ESP Fit Center  270 is at  -0.692943  1.608072 -1.941037
      ESP Fit Center  271 is at  -1.112943  1.720611 -1.941037
      ESP Fit Center  272 is at  -1.532943  1.608072 -1.941037
      ESP Fit Center  273 is at  -1.840405  1.300611 -1.941037
      ESP Fit Center  274 is at  -1.952943  0.880611 -1.941037
      ESP Fit Center  275 is at  -1.840405  0.460611 -1.941037
      ESP Fit Center  276 is at  -1.532943  0.153150 -1.941037
      ESP Fit Center  277 is at  -0.678127  0.880611 -2.108869
      ESP Fit Center  278 is at  -0.895535  1.257173 -2.108869
      ESP Fit Center  279 is at  -1.330351  1.257173 -2.108869
      ESP Fit Center  280 is at  -1.547759  0.880611 -2.108869
      ESP Fit Center  281 is at  -1.330351  0.504049 -2.108869
      ESP Fit Center  282 is at  -0.895535  0.504049 -2.108869
      ESP Fit Center  283 is at  -1.112943  0.880611 -2.166114
      ESP Fit Center  284 is at   0.750288 -0.000001  1.977863
      ESP Fit Center  285 is at   1.159978 -0.000001  1.937512
      ESP Fit Center  286 is at   0.545443  0.354801  1.937512
      ESP Fit Center  287 is at   0.545443 -0.354802  1.937512
      ESP Fit Center  288 is at   1.553923 -0.000001  1.818010
      ESP Fit Center  289 is at   0.348470  0.695968  1.818010
      ESP Fit Center  290 is at   0.348470 -0.695969  1.818010
      ESP Fit Center  291 is at   1.916985 -0.000001  1.623949
      ESP Fit Center  292 is at   2.235212 -0.000001  1.362787
      ESP Fit Center  293 is at   2.496374 -0.000001  1.044561
      ESP Fit Center  294 is at   2.690435 -0.000001  0.681498
      ESP Fit Center  295 is at   2.809937 -0.000001  0.287553
      ESP Fit Center  296 is at   2.850288 -0.000001 -0.122137
      ESP Fit Center  297 is at   2.809937  0.409689 -0.122137
      ESP Fit Center  298 is at   2.809937 -0.409690 -0.122137
      ESP Fit Center  299 is at   2.809937 -0.000001 -0.531826
      ESP Fit Center  300 is at   2.767776  0.414604 -0.531826
      ESP Fit Center  301 is at   2.643019  0.812234 -0.531826
      ESP Fit Center  302 is at   0.234032  1.993898 -0.531826
      ESP Fit Center  303 is at   0.234032 -1.993900 -0.531826
      ESP Fit Center  304 is at   2.643019 -0.812235 -0.531826
      ESP Fit Center  305 is at   2.767776 -0.414605 -0.531826
      ESP Fit Center  306 is at   2.690435 -0.000001 -0.925772
      ESP Fit Center  307 is at   2.645075  0.417073 -0.925772
      ESP Fit Center  308 is at   2.511118  0.814646 -0.925772
      ESP Fit Center  309 is at   2.294826  1.174126 -0.925772
      ESP Fit Center  310 is at   0.855325  1.937301 -0.925772
      ESP Fit Center  311 is at   0.436407  1.914588 -0.925772
      ESP Fit Center  312 is at   0.436407 -1.914589 -0.925772
      ESP Fit Center  313 is at   0.855325 -1.937302 -0.925772
      ESP Fit Center  314 is at   2.294826 -1.174128 -0.925772
      ESP Fit Center  315 is at   2.511118 -0.814647 -0.925772
      ESP Fit Center  316 is at   2.645075 -0.417075 -0.925772
      ESP Fit Center  317 is at   2.496374 -0.000001 -1.288834
      ESP Fit Center  318 is at   2.445636  0.417865 -1.288834
      ESP Fit Center  319 is at   2.296370  0.811446 -1.288834
      ESP Fit Center  320 is at   2.057252  1.157869 -1.288834
      ESP Fit Center  321 is at   1.742178  1.437000 -1.288834
      ESP Fit Center  322 is at   1.369459  1.632618 -1.288834
      ESP Fit Center  323 is at   0.960755  1.733354 -1.288834
      ESP Fit Center  324 is at   0.539821  1.733354 -1.288834
      ESP Fit Center  325 is at   0.539821 -1.733356 -1.288834
      ESP Fit Center  326 is at   0.960755 -1.733356 -1.288834
      ESP Fit Center  327 is at   1.369459 -1.632620 -1.288834
      ESP Fit Center  328 is at   1.742178 -1.437002 -1.288834
      ESP Fit Center  329 is at   2.057252 -1.157870 -1.288834
      ESP Fit Center  330 is at   2.296370 -0.811447 -1.288834
      ESP Fit Center  331 is at   2.445636 -0.417867 -1.288834
      ESP Fit Center  332 is at   2.235212 -0.000001 -1.607061
      ESP Fit Center  333 is at   2.175062  0.418351 -1.607061
      ESP Fit Center  334 is at   1.999486  0.802810 -1.607061
      ESP Fit Center  335 is at   1.722707  1.122230 -1.607061
      ESP Fit Center  336 is at   1.367148  1.350734 -1.607061
      ESP Fit Center  337 is at   0.961615  1.469809 -1.607061
      ESP Fit Center  338 is at   0.538961  1.469809 -1.607061
      ESP Fit Center  339 is at   0.133428  1.350734 -1.607061
      ESP Fit Center  340 is at   0.133428 -1.350735 -1.607061
      ESP Fit Center  341 is at   0.538961 -1.469811 -1.607061
      ESP Fit Center  342 is at   0.961615 -1.469811 -1.607061
      ESP Fit Center  343 is at   1.367148 -1.350735 -1.607061
      ESP Fit Center  344 is at   1.722707 -1.122232 -1.607061
      ESP Fit Center  345 is at   1.999486 -0.802811 -1.607061
      ESP Fit Center  346 is at   2.175062 -0.418352 -1.607061
      ESP Fit Center  347 is at   1.916985 -0.000001 -1.868223
      ESP Fit Center  348 is at   1.838201  0.421459 -1.868223
      ESP Fit Center  349 is at   1.612488  0.785998 -1.868223
      ESP Fit Center  350 is at   1.270330  1.044384 -1.868223
      ESP Fit Center  351 is at   0.857937  1.161720 -1.868223
      ESP Fit Center  352 is at   0.431006  1.122159 -1.868223
      ESP Fit Center  353 is at   0.047196  0.931044 -1.868223
      ESP Fit Center  354 is at   0.047196 -0.931045 -1.868223
      ESP Fit Center  355 is at   0.431006 -1.122160 -1.868223
      ESP Fit Center  356 is at   0.857937 -1.161721 -1.868223
      ESP Fit Center  357 is at   1.270330 -1.044386 -1.868223
      ESP Fit Center  358 is at   1.612488 -0.786000 -1.868223
      ESP Fit Center  359 is at   1.838201 -0.421461 -1.868223
      ESP Fit Center  360 is at   1.553923 -0.000001 -2.062284
      ESP Fit Center  361 is at   1.446256  0.401817 -2.062284
      ESP Fit Center  362 is at   1.152106  0.695968 -2.062284
      ESP Fit Center  363 is at   0.750288  0.803634 -2.062284
      ESP Fit Center  364 is at   0.348470  0.695968 -2.062284
      ESP Fit Center  365 is at   0.054319  0.401817 -2.062284
      ESP Fit Center  366 is at  -0.053347 -0.000001 -2.062284
      ESP Fit Center  367 is at   0.054319 -0.401818 -2.062284
      ESP Fit Center  368 is at   0.348470 -0.695969 -2.062284
      ESP Fit Center  369 is at   0.750288 -0.803636 -2.062284
      ESP Fit Center  370 is at   1.152106 -0.695969 -2.062284
      ESP Fit Center  371 is at   1.446256 -0.401818 -2.062284
      ESP Fit Center  372 is at   1.159978 -0.000001 -2.181786
      ESP Fit Center  373 is at   0.955133  0.354801 -2.181786
      ESP Fit Center  374 is at   0.545443  0.354801 -2.181786
      ESP Fit Center  375 is at   0.340598 -0.000001 -2.181786
      ESP Fit Center  376 is at   0.545443 -0.354802 -2.181786
      ESP Fit Center  377 is at   0.955133 -0.354802 -2.181786
      ESP Fit Center  378 is at   0.750288 -0.000001 -2.222137
      ESP Fit Center  379 is at   1.148420  0.813655  2.013718
      ESP Fit Center  380 is at   1.583236  0.813655  1.956473
      ESP Fit Center  381 is at   1.365828  1.190216  1.956473
      ESP Fit Center  382 is at   0.931012  1.190216  1.956473
      ESP Fit Center  383 is at   0.713604  0.813655  1.956473
      ESP Fit Center  384 is at   0.931012  0.437093  1.956473
      ESP Fit Center  385 is at   1.365828  0.437093  1.956473
      ESP Fit Center  386 is at   1.988420  0.813655  1.788641
      ESP Fit Center  387 is at   1.875881  1.233655  1.788641
      ESP Fit Center  388 is at   1.568420  1.541116  1.788641
      ESP Fit Center  389 is at   1.148420  1.653655  1.788641
      ESP Fit Center  390 is at   0.728420  1.541116  1.788641
      ESP Fit Center  391 is at   0.420958  1.233655  1.788641
      ESP Fit Center  392 is at   0.308420  0.813655  1.788641
      ESP Fit Center  393 is at   1.875881  0.393655  1.788641
      ESP Fit Center  394 is at   2.336359  0.813655  1.521657
      ESP Fit Center  395 is at   2.256140  1.242788  1.521657
      ESP Fit Center  396 is at   2.026317  1.613964  1.521657
      ESP Fit Center  397 is at   1.677930  1.877054  1.521657
      ESP Fit Center  398 is at   1.258029  1.996527  1.521657
      ESP Fit Center  399 is at   0.823325  1.956245  1.521657
      ESP Fit Center  400 is at   0.432526  1.761651  1.521657
      ESP Fit Center  401 is at   0.138413  1.439024  1.521657
      ESP Fit Center  402 is at   2.256140  0.384521  1.521657
      ESP Fit Center  403 is at   2.603342  0.813655  1.173718
      ESP Fit Center  404 is at   2.538704  1.242501  1.173718
      ESP Fit Center  405 is at   2.350533  1.633242  1.173718
      ESP Fit Center  406 is at   2.055549  1.951159  1.173718
      ESP Fit Center  407 is at   1.679962  2.168004  1.173718
      ESP Fit Center  408 is at   1.257146  2.264509  1.173718
      ESP Fit Center  409 is at   0.824669  2.232099  1.173718
      ESP Fit Center  410 is at   0.420958  2.073655  1.173718
      ESP Fit Center  411 is at   0.081886  1.803253  1.173718
      ESP Fit Center  412 is at   2.538704  0.384809  1.173718
      ESP Fit Center  413 is at   2.771175  0.813655  0.768534
      ESP Fit Center  414 is at   2.715881  1.233655  0.768534
      ESP Fit Center  415 is at   2.553767  1.625032  0.768534
      ESP Fit Center  416 is at   2.295881  1.961116  0.768534
      ESP Fit Center  417 is at   1.959797  2.219002  0.768534
      ESP Fit Center  418 is at   1.568420  2.381116  0.768534
      ESP Fit Center  419 is at   1.148420  2.436410  0.768534
      ESP Fit Center  420 is at   0.728420  2.381116  0.768534
      ESP Fit Center  421 is at   0.337042  2.219002  0.768534
      ESP Fit Center  422 is at   0.000958  1.961116  0.768534
      ESP Fit Center  423 is at   2.715881  0.393655  0.768534
      ESP Fit Center  424 is at   2.828420  0.813655  0.333718
      ESP Fit Center  425 is at   2.775639  1.231454  0.333718
      ESP Fit Center  426 is at   2.620615  1.623001  0.333718
      ESP Fit Center  427 is at   2.373087  1.963694  0.333718
      ESP Fit Center  428 is at   2.048609  2.232126  0.333718
      ESP Fit Center  429 is at   1.667568  2.411430  0.333718
      ESP Fit Center  430 is at   1.253908  2.490340  0.333718
      ESP Fit Center  431 is at   0.833619  2.463897  0.333718
      ESP Fit Center  432 is at   0.433110  2.333764  0.333718
      ESP Fit Center  433 is at   0.077547  2.108117  0.333718
      ESP Fit Center  434 is at   2.775639  0.395856  0.333718
      ESP Fit Center  435 is at   2.771175  0.813655 -0.101098
      ESP Fit Center  436 is at   2.715881  1.233655 -0.101098
      ESP Fit Center  437 is at   2.553767  1.625032 -0.101098
      ESP Fit Center  438 is at   2.295881  1.961116 -0.101098
      ESP Fit Center  439 is at   1.959797  2.219002 -0.101098
      ESP Fit Center  440 is at   1.568420  2.381116 -0.101098
      ESP Fit Center  441 is at   1.148420  2.436410 -0.101098
      ESP Fit Center  442 is at   0.728420  2.381116 -0.101098
      ESP Fit Center  443 is at   0.337042  2.219002 -0.101098
      ESP Fit Center  444 is at   2.538704  1.242501 -0.506282
      ESP Fit Center  445 is at   2.350533  1.633242 -0.506282
      ESP Fit Center  446 is at   2.055549  1.951159 -0.506282
      ESP Fit Center  447 is at   1.679962  2.168004 -0.506282
      ESP Fit Center  448 is at   1.257146  2.264509 -0.506282
      ESP Fit Center  449 is at   0.824669  2.232099 -0.506282
      ESP Fit Center  450 is at   0.420958  2.073655 -0.506282
      ESP Fit Center  451 is at   2.026317  1.613964 -0.854222
      ESP Fit Center  452 is at   1.677930  1.877054 -0.854222
      ESP Fit Center  453 is at   1.258029  1.996527 -0.854222
      ESP Fit Center  454 is at   1.148425 -0.813654  2.013718
      ESP Fit Center  455 is at   1.583241 -0.813654  1.956473
      ESP Fit Center  456 is at   1.365833 -0.437092  1.956473
      ESP Fit Center  457 is at   0.931017 -0.437092  1.956473
      ESP Fit Center  458 is at   0.713609 -0.813654  1.956473
      ESP Fit Center  459 is at   0.931017 -1.190215  1.956473
      ESP Fit Center  460 is at   1.365833 -1.190215  1.956473
      ESP Fit Center  461 is at   1.988425 -0.813654  1.788640
      ESP Fit Center  462 is at   1.875886 -0.393654  1.788640
      ESP Fit Center  463 is at   0.308425 -0.813654  1.788640
      ESP Fit Center  464 is at   0.420964 -1.233654  1.788640
      ESP Fit Center  465 is at   0.728425 -1.541115  1.788640
      ESP Fit Center  466 is at   1.148425 -1.653654  1.788640
      ESP Fit Center  467 is at   1.568425 -1.541115  1.788640
      ESP Fit Center  468 is at   1.875886 -1.233654  1.788640
      ESP Fit Center  469 is at   2.336364 -0.813654  1.521657
      ESP Fit Center  470 is at   2.256145 -0.384521  1.521657
      ESP Fit Center  471 is at   0.138418 -1.439023  1.521657
      ESP Fit Center  472 is at   0.432531 -1.761650  1.521657
      ESP Fit Center  473 is at   0.823330 -1.956244  1.521657
      ESP Fit Center  474 is at   1.258034 -1.996526  1.521657
      ESP Fit Center  475 is at   1.677935 -1.877053  1.521657
      ESP Fit Center  476 is at   2.026323 -1.613963  1.521657
      ESP Fit Center  477 is at   2.256145 -1.242787  1.521657
      ESP Fit Center  478 is at   2.603348 -0.813654  1.173718
      ESP Fit Center  479 is at   2.538709 -0.384808  1.173718
      ESP Fit Center  480 is at   0.081891 -1.803252  1.173718
      ESP Fit Center  481 is at   0.420964 -2.073654  1.173718
      ESP Fit Center  482 is at   0.824674 -2.232098  1.173718
      ESP Fit Center  483 is at   1.257151 -2.264508  1.173718
      ESP Fit Center  484 is at   1.679968 -2.168003  1.173718
      ESP Fit Center  485 is at   2.055554 -1.951158  1.173718
      ESP Fit Center  486 is at   2.350538 -1.633241  1.173718
      ESP Fit Center  487 is at   2.538709 -1.242500  1.173718
      ESP Fit Center  488 is at   2.771180 -0.813654  0.768534
      ESP Fit Center  489 is at   2.715886 -0.393654  0.768534
      ESP Fit Center  490 is at   0.000964 -1.961115  0.768534
      ESP Fit Center  491 is at   0.337047 -2.219001  0.768534
      ESP Fit Center  492 is at   0.728425 -2.381115  0.768534
      ESP Fit Center  493 is at   1.148425 -2.436409  0.768534
      ESP Fit Center  494 is at   1.568425 -2.381115  0.768534
      ESP Fit Center  495 is at   1.959803 -2.219001  0.768534
      ESP Fit Center  496 is at   2.295886 -1.961115  0.768534
      ESP Fit Center  497 is at   2.553772 -1.625031  0.768534
      ESP Fit Center  498 is at   2.715886 -1.233654  0.768534
      ESP Fit Center  499 is at   2.828425 -0.813654  0.333718
      ESP Fit Center  500 is at   2.775645 -0.395855  0.333718
      ESP Fit Center  501 is at   0.077553 -2.108116  0.333718
      ESP Fit Center  502 is at   0.433116 -2.333763  0.333718
      ESP Fit Center  503 is at   0.833624 -2.463896  0.333718
      ESP Fit Center  504 is at   1.253913 -2.490339  0.333718
      ESP Fit Center  505 is at   1.667573 -2.411429  0.333718
      ESP Fit Center  506 is at   2.048614 -2.232125  0.333718
      ESP Fit Center  507 is at   2.373092 -1.963693  0.333718
      ESP Fit Center  508 is at   2.620620 -1.623000  0.333718
      ESP Fit Center  509 is at   2.775645 -1.231453  0.333718
      ESP Fit Center  510 is at   2.771180 -0.813654 -0.101098
      ESP Fit Center  511 is at   0.337047 -2.219001 -0.101098
      ESP Fit Center  512 is at   0.728425 -2.381115 -0.101098
      ESP Fit Center  513 is at   1.148425 -2.436409 -0.101098
      ESP Fit Center  514 is at   1.568425 -2.381115 -0.101098
      ESP Fit Center  515 is at   1.959803 -2.219001 -0.101098
      ESP Fit Center  516 is at   2.295886 -1.961115 -0.101098
      ESP Fit Center  517 is at   2.553772 -1.625031 -0.101098
      ESP Fit Center  518 is at   2.715886 -1.233654 -0.101098
      ESP Fit Center  519 is at   0.420964 -2.073654 -0.506282
      ESP Fit Center  520 is at   0.824674 -2.232098 -0.506282
      ESP Fit Center  521 is at   1.257151 -2.264508 -0.506282
      ESP Fit Center  522 is at   1.679968 -2.168003 -0.506282
      ESP Fit Center  523 is at   2.055554 -1.951158 -0.506282
      ESP Fit Center  524 is at   2.350538 -1.633241 -0.506282
      ESP Fit Center  525 is at   2.538709 -1.242500 -0.506282
      ESP Fit Center  526 is at   1.258034 -1.996526 -0.854222
      ESP Fit Center  527 is at   1.677935 -1.877053 -0.854222
      ESP Fit Center  528 is at   2.026323 -1.613963 -0.854222
      ESP Fit Center  529 is at  -0.388842  1.810575  1.560403
      ESP Fit Center  530 is at  -0.814995  1.835395  1.560403
      ESP Fit Center  531 is at  -0.814995 -1.835397  1.560403
      ESP Fit Center  532 is at  -0.388842 -1.810577  1.560403
      ESP Fit Center  533 is at  -0.393359  2.054492  1.217713
      ESP Fit Center  534 is at  -0.813368  2.075792  1.217713
      ESP Fit Center  535 is at  -1.229067  2.012110  1.217713
      ESP Fit Center  536 is at  -1.623438  1.866051  1.217713
      ESP Fit Center  537 is at  -1.623438 -1.866053  1.217713
      ESP Fit Center  538 is at  -1.229067 -2.012111  1.217713
      ESP Fit Center  539 is at  -0.813368 -2.075794  1.217713
      ESP Fit Center  540 is at  -0.393359 -2.054494  1.217713
      ESP Fit Center  541 is at  -0.176397  2.191689  0.838561
      ESP Fit Center  542 is at  -0.600786  2.252707  0.838561
      ESP Fit Center  543 is at  -2.480851  1.394110  0.838561
      ESP Fit Center  544 is at  -2.712653  1.033420  0.838561
      ESP Fit Center  545 is at  -2.712653 -1.033422  0.838561
      ESP Fit Center  546 is at  -2.480851 -1.394112  0.838561
      ESP Fit Center  547 is at  -0.600786 -2.252709  0.838561
      ESP Fit Center  548 is at  -0.176397 -2.191691  0.838561
      ESP Fit Center  549 is at  -2.837570  1.025500  0.434468
      ESP Fit Center  550 is at  -2.986459  0.628787  0.434468
      ESP Fit Center  551 is at  -3.062119  0.211865  0.434468
      ESP Fit Center  552 is at  -3.062119 -0.211867  0.434468
      ESP Fit Center  553 is at  -2.986459 -0.628789  0.434468
      ESP Fit Center  554 is at  -2.837570 -1.025502  0.434468
      ESP Fit Center  555 is at  -3.071634  0.416755  0.017713
      ESP Fit Center  556 is at  -3.108096 -0.000001  0.017713
      ESP Fit Center  557 is at  -3.071634 -0.416757  0.017713
      ESP Fit Center  558 is at  -3.062119  0.211865 -0.399043
      ESP Fit Center  559 is at  -3.062119 -0.211867 -0.399043
      ESP Fit Center  560 is at  -2.953146  0.214375 -0.803136
      ESP Fit Center  561 is at  -2.953146 -0.214377 -0.803136
      ESP Fit Center  562 is at  -2.775893  0.210274 -1.182287
      ESP Fit Center  563 is at  -2.775893 -0.210275 -1.182287
      ESP Fit Center  564 is at  -1.908096 -0.000001 -2.060748
      ESP Fit Center  565 is at  -0.297671  0.710875 -2.237549
      ESP Fit Center  566 is at  -1.528944 -0.000001 -2.237549
      ESP Fit Center  567 is at  -0.297671 -0.710876 -2.237549
      ESP Fit Center  568 is at  -0.291340 -0.000001 -2.345826
      ESP Fit Center  569 is at  -0.499718  0.360920 -2.345826
      ESP Fit Center  570 is at  -0.916473  0.360920 -2.345826
      ESP Fit Center  571 is at  -1.124851 -0.000001 -2.345826
      ESP Fit Center  572 is at  -0.916473 -0.360922 -2.345826
      ESP Fit Center  573 is at  -0.499718 -0.360922 -2.345826
      ESP Fit Center  574 is at  -0.708096 -0.000001 -2.382287
      ESP Fit Center  575 is at  -2.375783 -1.692079  0.710829
      ESP Fit Center  576 is at  -2.095986 -2.014982  0.710829
      ESP Fit Center  577 is at  -1.736550 -2.245977  0.710829
      ESP Fit Center  578 is at  -1.326595 -2.366351  0.710829
      ESP Fit Center  579 is at  -0.899333 -2.366351  0.710829
      ESP Fit Center  580 is at  -2.792558 -1.294497  0.346786
      ESP Fit Center  581 is at  -2.644679 -1.684420  0.346786
      ESP Fit Center  582 is at  -2.407783 -2.027623  0.346786
      ESP Fit Center  583 is at  -2.095636 -2.304161  0.346786
      ESP Fit Center  584 is at  -1.726381 -2.497961  0.346786
      ESP Fit Center  585 is at  -1.321475 -2.597761  0.346786
      ESP Fit Center  586 is at  -0.904452 -2.597761  0.346786
      ESP Fit Center  587 is at  -0.499547 -2.497961  0.346786
      ESP Fit Center  588 is at  -2.984825 -0.880514 -0.059031
      ESP Fit Center  589 is at  -2.937894 -1.297042 -0.059031
      ESP Fit Center  590 is at  -2.799453 -1.692684 -0.059031
      ESP Fit Center  591 is at  -2.576444 -2.047600 -0.059031
      ESP Fit Center  592 is at  -2.280050 -2.343994 -0.059031
      ESP Fit Center  593 is at  -1.925134 -2.567003 -0.059031
      ESP Fit Center  594 is at  -1.529492 -2.705444 -0.059031
      ESP Fit Center  595 is at  -1.112964 -2.752375 -0.059031
      ESP Fit Center  596 is at  -0.696435 -2.705444 -0.059031
      ESP Fit Center  597 is at  -0.300794 -2.567003 -0.059031
      ESP Fit Center  598 is at   0.054123 -2.343994 -0.059031
      ESP Fit Center  599 is at  -3.021709 -0.672925 -0.486271
      ESP Fit Center  600 is at  -3.021709 -1.088102 -0.486271
      ESP Fit Center  601 is at  -2.932458 -1.493573 -0.486271
      ESP Fit Center  602 is at  -2.758130 -1.870377 -0.486271
      ESP Fit Center  603 is at  -2.506875 -2.200897 -0.486271
      ESP Fit Center  604 is at  -2.190443 -2.469677 -0.486271
      ESP Fit Center  605 is at  -1.823629 -2.664149 -0.486271
      ESP Fit Center  606 is at  -1.423585 -2.775221 -0.486271
      ESP Fit Center  607 is at  -1.009017 -2.797698 -0.486271
      ESP Fit Center  608 is at  -0.599309 -2.730530 -0.486271
      ESP Fit Center  609 is at  -0.213620 -2.576857 -0.486271
      ESP Fit Center  610 is at   0.130018 -2.343865 -0.486271
      ESP Fit Center  611 is at  -2.937894 -0.463985 -0.913511
      ESP Fit Center  612 is at  -2.984825 -0.880514 -0.913511
      ESP Fit Center  613 is at  -2.937894 -1.297042 -0.913511
      ESP Fit Center  614 is at  -2.799453 -1.692684 -0.913511
      ESP Fit Center  615 is at  -2.576444 -2.047600 -0.913511
      ESP Fit Center  616 is at  -2.280050 -2.343994 -0.913511
      ESP Fit Center  617 is at  -1.925134 -2.567003 -0.913511
      ESP Fit Center  618 is at  -1.529492 -2.705444 -0.913511
      ESP Fit Center  619 is at  -1.112964 -2.752375 -0.913511
      ESP Fit Center  620 is at  -0.696435 -2.705444 -0.913511
      ESP Fit Center  621 is at  -0.300794 -2.567003 -0.913511
      ESP Fit Center  622 is at   0.054123 -2.343994 -0.913511
      ESP Fit Center  623 is at  -2.792558 -0.466531 -1.319328
      ESP Fit Center  624 is at  -2.842824 -0.880514 -1.319328
      ESP Fit Center  625 is at  -2.792558 -1.294497 -1.319328
      ESP Fit Center  626 is at  -2.644679 -1.684420 -1.319328
      ESP Fit Center  627 is at  -2.407783 -2.027623 -1.319328
      ESP Fit Center  628 is at  -2.095636 -2.304161 -1.319328
      ESP Fit Center  629 is at  -1.726381 -2.497961 -1.319328
      ESP Fit Center  630 is at  -1.321475 -2.597761 -1.319328
      ESP Fit Center  631 is at  -0.904452 -2.597761 -1.319328
      ESP Fit Center  632 is at  -0.499547 -2.497961 -1.319328
      ESP Fit Center  633 is at  -0.130291 -2.304161 -1.319328
      ESP Fit Center  634 is at   0.181855 -2.027623 -1.319328
      ESP Fit Center  635 is at  -2.553275 -0.457600 -1.683372
      ESP Fit Center  636 is at  -2.614080 -0.880514 -1.683372
      ESP Fit Center  637 is at  -2.553275 -1.303427 -1.683372
      ESP Fit Center  638 is at  -2.375783 -1.692079 -1.683372
      ESP Fit Center  639 is at  -2.095986 -2.014982 -1.683372
      ESP Fit Center  640 is at  -1.736550 -2.245977 -1.683372
      ESP Fit Center  641 is at  -1.326595 -2.366351 -1.683372
      ESP Fit Center  642 is at  -0.899333 -2.366351 -1.683372
      ESP Fit Center  643 is at  -0.489378 -2.245977 -1.683372
      ESP Fit Center  644 is at  -0.129942 -2.014982 -1.683372
      ESP Fit Center  645 is at  -2.029996 -0.111033 -1.987388
      ESP Fit Center  646 is at  -2.237870 -0.471081 -1.987388
      ESP Fit Center  647 is at  -2.310064 -0.880514 -1.987388
      ESP Fit Center  648 is at  -2.237870 -1.289946 -1.987388
      ESP Fit Center  649 is at  -2.029996 -1.649995 -1.987388
      ESP Fit Center  650 is at  -1.711514 -1.917233 -1.987388
      ESP Fit Center  651 is at  -1.320838 -2.059428 -1.987388
      ESP Fit Center  652 is at  -0.905090 -2.059428 -1.987388
      ESP Fit Center  653 is at  -0.514414 -1.917233 -1.987388
      ESP Fit Center  654 is at  -0.195932 -1.649995 -1.987388
      ESP Fit Center  655 is at  -0.279907 -0.880514 -2.216131
      ESP Fit Center  656 is at  -1.834412 -0.463985 -2.216131
      ESP Fit Center  657 is at  -1.946021 -0.880514 -2.216131
      ESP Fit Center  658 is at  -1.834412 -1.297042 -2.216131
      ESP Fit Center  659 is at  -1.529492 -1.601962 -2.216131
      ESP Fit Center  660 is at  -1.112964 -1.713571 -2.216131
      ESP Fit Center  661 is at  -0.696435 -1.601962 -2.216131
      ESP Fit Center  662 is at  -0.391516 -1.297042 -2.216131
      ESP Fit Center  663 is at  -0.685724 -0.880514 -2.358133
      ESP Fit Center  664 is at  -0.899344 -0.510513 -2.358133
      ESP Fit Center  665 is at  -1.326584 -0.510513 -2.358133
      ESP Fit Center  666 is at  -1.540204 -0.880514 -2.358133
      ESP Fit Center  667 is at  -1.326584 -1.250515 -2.358133
      ESP Fit Center  668 is at  -0.899344 -1.250515 -2.358133
      ESP Fit Center  669 is at  -1.112964 -0.880514 -2.406271
      ESP Fit Center  670 is at  -1.074380 -0.000087  2.973630
      ESP Fit Center  671 is at  -0.647140 -0.000087  2.925492
      ESP Fit Center  672 is at  -0.860760  0.369913  2.925492
      ESP Fit Center  673 is at  -1.288000  0.369913  2.925492
      ESP Fit Center  674 is at  -1.501620 -0.000087  2.925492
      ESP Fit Center  675 is at  -1.288000 -0.370088  2.925492
      ESP Fit Center  676 is at  -0.860760 -0.370088  2.925492
      ESP Fit Center  677 is at  -0.241323 -0.000087  2.783491
      ESP Fit Center  678 is at  -0.352931  0.416441  2.783491
      ESP Fit Center  679 is at  -0.657851  0.721361  2.783491
      ESP Fit Center  680 is at  -1.074380  0.832969  2.783491
      ESP Fit Center  681 is at  -1.490908  0.721361  2.783491
      ESP Fit Center  682 is at  -1.795828  0.416441  2.783491
      ESP Fit Center  683 is at  -1.907437 -0.000087  2.783491
      ESP Fit Center  684 is at  -1.795828 -0.416616  2.783491
      ESP Fit Center  685 is at  -1.490908 -0.721536  2.783491
      ESP Fit Center  686 is at  -1.074380 -0.833144  2.783491
      ESP Fit Center  687 is at  -0.657851 -0.721536  2.783491
      ESP Fit Center  688 is at  -0.352931 -0.416616  2.783491
      ESP Fit Center  689 is at   0.122721 -0.000087  2.554747
      ESP Fit Center  690 is at   0.050527  0.409345  2.554747
      ESP Fit Center  691 is at  -0.157348  0.769394  2.554747
      ESP Fit Center  692 is at  -0.475830  1.036632  2.554747
      ESP Fit Center  693 is at  -0.866506  1.178826  2.554747
      ESP Fit Center  694 is at  -1.282254  1.178826  2.554747
      ESP Fit Center  695 is at  -1.672930  1.036632  2.554747
      ESP Fit Center  696 is at  -1.991412  0.769394  2.554747
      ESP Fit Center  697 is at  -2.199286  0.409345  2.554747
      ESP Fit Center  698 is at  -2.271480 -0.000087  2.554747
      ESP Fit Center  699 is at  -2.199286 -0.409520  2.554747
      ESP Fit Center  700 is at  -1.991412 -0.769569  2.554747
      ESP Fit Center  701 is at  -1.672930 -1.036807  2.554747
      ESP Fit Center  702 is at  -1.282254 -1.179001  2.554747
      ESP Fit Center  703 is at  -0.866506 -1.179001  2.554747
      ESP Fit Center  704 is at  -0.475830 -1.036807  2.554747
      ESP Fit Center  705 is at  -0.157348 -0.769569  2.554747
      ESP Fit Center  706 is at   0.050527 -0.409520  2.554747
      ESP Fit Center  707 is at   0.365931  0.422826  2.250731
      ESP Fit Center  708 is at   0.188440  0.811477  2.250731
      ESP Fit Center  709 is at  -0.091358  1.134381  2.250731
      ESP Fit Center  710 is at  -0.450794  1.365376  2.250731
      ESP Fit Center  711 is at  -0.860749  1.485750  2.250731
      ESP Fit Center  712 is at  -1.288011  1.485750  2.250731
      ESP Fit Center  713 is at  -1.697966  1.365376  2.250731
      ESP Fit Center  714 is at  -2.057402  1.134381  2.250731
      ESP Fit Center  715 is at  -2.337199  0.811477  2.250731
      ESP Fit Center  716 is at  -2.514690  0.422826  2.250731
      ESP Fit Center  717 is at  -2.575496 -0.000087  2.250731
      ESP Fit Center  718 is at  -2.514690 -0.423001  2.250731
      ESP Fit Center  719 is at  -2.337199 -0.811652  2.250731
      ESP Fit Center  720 is at  -2.057402 -1.134556  2.250731
      ESP Fit Center  721 is at  -1.697966 -1.365551  2.250731
      ESP Fit Center  722 is at  -1.288011 -1.485925  2.250731
      ESP Fit Center  723 is at  -0.860749 -1.485925  2.250731
      ESP Fit Center  724 is at  -0.450794 -1.365551  2.250731
      ESP Fit Center  725 is at  -0.091358 -1.134556  2.250731
      ESP Fit Center  726 is at   0.188440 -0.811652  2.250731
      ESP Fit Center  727 is at   0.365931 -0.423001  2.250731
      ESP Fit Center  728 is at  -0.091707  1.423560  1.886687
      ESP Fit Center  729 is at  -0.460963  1.617360  1.886687
      ESP Fit Center  730 is at  -0.865868  1.717160  1.886687
      ESP Fit Center  731 is at  -1.282891  1.717160  1.886687
      ESP Fit Center  732 is at  -1.687797  1.617360  1.886687
      ESP Fit Center  733 is at  -2.057052  1.423560  1.886687
      ESP Fit Center  734 is at  -2.369199  1.147022  1.886687
      ESP Fit Center  735 is at  -2.606095  0.803819  1.886687
      ESP Fit Center  736 is at  -2.753973  0.413895  1.886687
      ESP Fit Center  737 is at  -2.804240 -0.000087  1.886687
      ESP Fit Center  738 is at  -2.753973 -0.414070  1.886687
      ESP Fit Center  739 is at  -2.606095 -0.803994  1.886687
      ESP Fit Center  740 is at  -2.369199 -1.147197  1.886687
      ESP Fit Center  741 is at  -2.057052 -1.423734  1.886687
      ESP Fit Center  742 is at  -1.687797 -1.617535  1.886687
      ESP Fit Center  743 is at  -1.282891 -1.717335  1.886687
      ESP Fit Center  744 is at  -0.865868 -1.717335  1.886687
      ESP Fit Center  745 is at  -0.460963 -1.617535  1.886687
      ESP Fit Center  746 is at  -0.091707 -1.423734  1.886687
      ESP Fit Center  747 is at  -1.074380  1.871774  1.480871
      ESP Fit Center  748 is at  -1.490908  1.824843  1.480871
      ESP Fit Center  749 is at  -1.886550  1.686402  1.480871
      ESP Fit Center  750 is at  -2.241466  1.463393  1.480871
      ESP Fit Center  751 is at  -2.537860  1.166999  1.480871
      ESP Fit Center  752 is at  -2.760869  0.812083  1.480871
      ESP Fit Center  753 is at  -2.899310  0.416441  1.480871
      ESP Fit Center  754 is at  -2.946241 -0.000087  1.480871
      ESP Fit Center  755 is at  -2.899310 -0.416616  1.480871
      ESP Fit Center  756 is at  -2.760869 -0.812258  1.480871
      ESP Fit Center  757 is at  -2.537860 -1.167174  1.480871
      ESP Fit Center  758 is at  -2.241466 -1.463568  1.480871
      ESP Fit Center  759 is at  -1.886550 -1.686576  1.480871
      ESP Fit Center  760 is at  -1.490908 -1.825018  1.480871
      ESP Fit Center  761 is at  -1.074380 -1.871949  1.480871
      ESP Fit Center  762 is at  -2.468291  1.320296  1.053630
      ESP Fit Center  763 is at  -2.719546  0.989776  1.053630
      ESP Fit Center  764 is at  -2.893874  0.612972  1.053630
      ESP Fit Center  765 is at  -2.983125  0.207501  1.053630
      ESP Fit Center  766 is at  -2.983125 -0.207676  1.053630
      ESP Fit Center  767 is at  -2.893874 -0.613146  1.053630
      ESP Fit Center  768 is at  -2.719546 -0.989951  1.053630
      ESP Fit Center  769 is at  -2.468291 -1.320470  1.053630
      ESP Fit Center  770 is at  -0.899312  2.366448  0.710986
      ESP Fit Center  771 is at  -1.326575  2.366448  0.710986
      ESP Fit Center  772 is at  -1.736530  2.246075  0.710986
      ESP Fit Center  773 is at  -2.095966  2.015079  0.710986
      ESP Fit Center  774 is at  -2.375763  1.692176  0.710986
      ESP Fit Center  775 is at  -0.499527  2.498059  0.346943
      ESP Fit Center  776 is at  -0.904432  2.597859  0.346943
      ESP Fit Center  777 is at  -1.321455  2.597859  0.346943
      ESP Fit Center  778 is at  -1.726360  2.498059  0.346943
      ESP Fit Center  779 is at  -2.095616  2.304258  0.346943
      ESP Fit Center  780 is at  -2.407762  2.027721  0.346943
      ESP Fit Center  781 is at  -2.644659  1.684517  0.346943
      ESP Fit Center  782 is at  -2.792537  1.294594  0.346943
      ESP Fit Center  783 is at   0.054143  2.344091 -0.058874
      ESP Fit Center  784 is at  -0.300773  2.567100 -0.058874
      ESP Fit Center  785 is at  -0.696415  2.705541 -0.058874
      ESP Fit Center  786 is at  -1.112943  2.752473 -0.058874
      ESP Fit Center  787 is at  -1.529472  2.705541 -0.058874
      ESP Fit Center  788 is at  -1.925114  2.567100 -0.058874
      ESP Fit Center  789 is at  -2.280030  2.344091 -0.058874
      ESP Fit Center  790 is at  -2.576424  2.047698 -0.058874
      ESP Fit Center  791 is at  -2.799432  1.692781 -0.058874
      ESP Fit Center  792 is at  -2.937874  1.297140 -0.058874
      ESP Fit Center  793 is at  -2.984805  0.880611 -0.058874
      ESP Fit Center  794 is at   0.130038  2.343962 -0.486114
      ESP Fit Center  795 is at  -0.213599  2.576954 -0.486114
      ESP Fit Center  796 is at  -0.599289  2.730627 -0.486114
      ESP Fit Center  797 is at  -1.008997  2.797795 -0.486114
      ESP Fit Center  798 is at  -1.423565  2.775318 -0.486114
      ESP Fit Center  799 is at  -1.823609  2.664246 -0.486114
      ESP Fit Center  800 is at  -2.190423  2.469774 -0.486114
      ESP Fit Center  801 is at  -2.506855  2.200994 -0.486114
      ESP Fit Center  802 is at  -2.758109  1.870475 -0.486114
      ESP Fit Center  803 is at  -2.932438  1.493670 -0.486114
      ESP Fit Center  804 is at  -3.021688  1.088200 -0.486114
      ESP Fit Center  805 is at  -3.021688  0.673023 -0.486114
      ESP Fit Center  806 is at   0.054143  2.344091 -0.913354
      ESP Fit Center  807 is at  -0.300773  2.567100 -0.913354
      ESP Fit Center  808 is at  -0.696415  2.705541 -0.913354
      ESP Fit Center  809 is at  -1.112943  2.752473 -0.913354
      ESP Fit Center  810 is at  -1.529472  2.705541 -0.913354
      ESP Fit Center  811 is at  -1.925114  2.567100 -0.913354
      ESP Fit Center  812 is at  -2.280030  2.344091 -0.913354
      ESP Fit Center  813 is at  -2.576424  2.047698 -0.913354
      ESP Fit Center  814 is at  -2.799432  1.692781 -0.913354
      ESP Fit Center  815 is at  -2.937874  1.297140 -0.913354
      ESP Fit Center  816 is at  -2.984805  0.880611 -0.913354
      ESP Fit Center  817 is at  -2.937874  0.464083 -0.913354
      ESP Fit Center  818 is at   0.181876  2.027721 -1.319171
      ESP Fit Center  819 is at  -0.130271  2.304258 -1.319171
[...]
 2064 Fit       0.003463
 2065 Fit       0.003778
 2066 Fit       0.001356
 2067 Fit       0.001698
 2068 Fit       0.002039
 2069 Fit       0.002339
 2070 Fit       0.002570
 2071 Fit       0.002712
 2072 Fit       0.002753
 2073 Fit       0.002692
 2074 Fit       0.002530
 2075 Fit       0.002268
 2076 Fit       0.001889
 2077 Fit       0.001329
 2078 Fit       0.000644
 2079 Fit       0.001022
 2080 Fit       0.001416
 2081 Fit       0.001777
 2082 Fit       0.002063
 2083 Fit       0.002241
 2084 Fit       0.002285
 2085 Fit       0.002177
 2086 Fit       0.001897
 2087 Fit       0.001418
 2088 Fit       0.000682
 2089 Fit      -0.000442
 2090 Fit      -0.002236
 2091 Fit       0.000101
 2092 Fit       0.000545
 2093 Fit       0.000970
 2094 Fit       0.001325
 2095 Fit       0.001566
 2096 Fit       0.001656
 2097 Fit       0.001562
 2098 Fit       0.001250
 2099 Fit       0.000676
 2100 Fit      -0.000237
 2101 Fit      -0.001633
 2102 Fit      -0.003797
 2103 Fit      -0.000611
 2104 Fit      -0.000085
 2105 Fit       0.000367
 2106 Fit       0.000687
 2107 Fit       0.000817
 2108 Fit       0.000707
 2109 Fit       0.000300
 2110 Fit      -0.000479
 2111 Fit      -0.001752
 2112 Fit      -0.003740
 2113 Fit      -0.006840
 2114 Fit      -0.001515
 2115 Fit      -0.000919
 2116 Fit      -0.000478
 2117 Fit      -0.000264
 2118 Fit      -0.000350
 2119 Fit      -0.000818
 2120 Fit      -0.001775
 2121 Fit      -0.003386
 2122 Fit      -0.005919
 2123 Fit      -0.009786
 2124 Fit      -0.003123
 2125 Fit      -0.002304
 2126 Fit      -0.001766
 2127 Fit      -0.001592
 2128 Fit      -0.001897
 2129 Fit      -0.002823
 2130 Fit      -0.004565
 2131 Fit      -0.007392
 2132 Fit      -0.011567
 2133 Fit      -0.004891
 2134 Fit      -0.003723
 2135 Fit      -0.003247
 2136 Fit      -0.003621
 2137 Fit      -0.005102
 2138 Fit      -0.007942
 2139 Fit      -0.012017
 2140 Fit      -0.005568
 2141 Fit      -0.005651
 2142 Fit      -0.008139
 2143 Fit      -0.008011
 2144 Fit       0.005405
 2145 Fit       0.005749
 2146 Fit       0.005566
 2147 Fit       0.005205
 2148 Fit       0.005044
 2149 Fit       0.005205
 2150 Fit       0.005566
 2151 Fit       0.006100
 2152 Fit       0.006017
 2153 Fit       0.005734
 2154 Fit       0.005316
 2155 Fit       0.004943
 2156 Fit       0.004719
 2157 Fit       0.004649
 2158 Fit       0.004719
 2159 Fit       0.004943
 2160 Fit       0.005316
 2161 Fit       0.005734
 2162 Fit       0.006017
 2163 Fit       0.006479
 2164 Fit       0.006467
 2165 Fit       0.006334
 2166 Fit       0.005978
 2167 Fit       0.005475
 2168 Fit       0.004985
 2169 Fit       0.004610
 2170 Fit       0.004372
 2171 Fit       0.004248
 2172 Fit       0.004211
 2173 Fit       0.004249
 2174 Fit       0.004372
 2175 Fit       0.004610
 2176 Fit       0.004985
 2177 Fit       0.005475
 2178 Fit       0.005978
 2179 Fit       0.006334
 2180 Fit       0.006467
 2181 Fit       0.006897
 2182 Fit       0.006980
 2183 Fit       0.007048
 2184 Fit       0.006828
 2185 Fit       0.006287
 2186 Fit       0.005602
 2187 Fit       0.004959
 2188 Fit       0.004456
 2189 Fit       0.004112
 2190 Fit       0.003902
 2191 Fit       0.003788
 2192 Fit       0.003740
 2193 Fit       0.003740
 2194 Fit       0.003788
 2195 Fit       0.003902
 2196 Fit       0.004112
 2197 Fit       0.004457
 2198 Fit       0.004959
 2199 Fit       0.005602
 2200 Fit       0.006287
 2201 Fit       0.006828
 2202 Fit       0.007049
 2203 Fit       0.006980
 2204 Fit       0.007553
 2205 Fit       0.006623
 2206 Fit       0.005646
 2207 Fit       0.004812
 2208 Fit       0.004188
 2209 Fit       0.003764
 2210 Fit       0.003499
 2211 Fit       0.003347
 2212 Fit       0.003269
 2213 Fit       0.003236
 2214 Fit       0.003236
 2215 Fit       0.003269
 2216 Fit       0.003347
 2217 Fit       0.003499
 2218 Fit       0.003764
 2219 Fit       0.004188
 2220 Fit       0.004812
 2221 Fit       0.005646
 2222 Fit       0.006623
 2223 Fit       0.007553
 2224 Fit       0.005724
 2225 Fit       0.004682
 2226 Fit       0.003931
 2227 Fit       0.003426
 2228 Fit       0.003106
 2229 Fit       0.002915
 2230 Fit       0.002810
 2231 Fit       0.002757
 2232 Fit       0.002735
 2233 Fit       0.002735
 2234 Fit       0.002757
 2235 Fit       0.002810
 2236 Fit       0.002915
 2237 Fit       0.003106
 2238 Fit       0.003426
 2239 Fit       0.003931
 2240 Fit       0.004682
 2241 Fit       0.005724
 2242 Fit       0.003338
 2243 Fit       0.002871
 2244 Fit       0.002586
 2245 Fit       0.002421
 2246 Fit       0.002333
 2247 Fit       0.002291
 2248 Fit       0.002274
 2249 Fit       0.002274
 2250 Fit       0.002291
 2251 Fit       0.002333
 2252 Fit       0.002422
 2253 Fit       0.002586
 2254 Fit       0.002871
 2255 Fit       0.003338
 2256 Fit       0.002178
 2257 Fit       0.002029
 2258 Fit       0.001949
 2259 Fit       0.001910
 2260 Fit       0.001896
 2261 Fit       0.001896
 2262 Fit       0.001910
 2263 Fit       0.001949
 2264 Fit       0.002029
 2265 Fit       0.002178
 2266 Fit       0.005385
 2267 Fit       0.004349
 2268 Fit       0.003667
 2269 Fit       0.003175
 2270 Fit       0.002778
 2271 Fit       0.002432
 2272 Fit       0.005382
 2273 Fit       0.004444
 2274 Fit       0.003853
 2275 Fit       0.003440
 2276 Fit       0.003106
 2277 Fit       0.002797
 2278 Fit       0.002491
 2279 Fit       0.002191
 2280 Fit       0.005952
 2281 Fit       0.004800
 2282 Fit       0.004141
 2283 Fit       0.003744
 2284 Fit       0.003476
 2285 Fit       0.003256
 2286 Fit       0.003034
 2287 Fit       0.002788
 2288 Fit       0.002511
 2289 Fit       0.002215
 2290 Fit       0.001928
 2291 Fit       0.003780
 2292 Fit       0.003464
 2293 Fit       0.003306
 2294 Fit       0.003230
 2295 Fit       0.003179
 2296 Fit       0.003112
 2297 Fit       0.003001
 2298 Fit       0.002831
 2299 Fit       0.002601
 2300 Fit       0.002321
 2301 Fit       0.002013
 2302 Fit       0.001709
 2303 Fit       0.001331
 2304 Fit       0.001890
 2305 Fit       0.002269
 2306 Fit       0.002531
 2307 Fit       0.002693
 2308 Fit       0.002754
 2309 Fit       0.002713
 2310 Fit       0.002571
 2311 Fit       0.002340
 2312 Fit       0.002039
 2313 Fit       0.001699
 2314 Fit       0.001356
 2315 Fit      -0.002234
 2316 Fit      -0.000440
 2317 Fit       0.000683
 2318 Fit       0.001419
 2319 Fit       0.001898
 2320 Fit       0.002177
 2321 Fit       0.002285
 2322 Fit       0.002241
 2323 Fit       0.002063
 2324 Fit       0.001777
 2325 Fit       0.001417
 2326 Fit       0.001022
 2327 Fit       0.000645
 2328 Fit      -0.003796
 2329 Fit      -0.001632
 2330 Fit      -0.000236
 2331 Fit       0.000677
 2332 Fit       0.001250
 2333 Fit       0.001562
 2334 Fit       0.001656
 2335 Fit       0.001566
 2336 Fit       0.001325
 2337 Fit       0.000971
 2338 Fit       0.000545
 2339 Fit       0.000102
 2340 Fit      -0.006839
 2341 Fit      -0.003740
 2342 Fit      -0.001752
 2343 Fit      -0.000479
 2344 Fit       0.000300
 2345 Fit       0.000707
 2346 Fit       0.000817
 2347 Fit       0.000687
 2348 Fit       0.000367
 2349 Fit      -0.000085
 2350 Fit      -0.000611
 2351 Fit      -0.009786
 2352 Fit      -0.005918
 2353 Fit      -0.003385
 2354 Fit      -0.001775
 2355 Fit      -0.000818
 2356 Fit      -0.000350
 2357 Fit      -0.000264
 2358 Fit      -0.000478
 2359 Fit      -0.000919
 2360 Fit      -0.001515
 2361 Fit      -0.011567
 2362 Fit      -0.007392
 2363 Fit      -0.004565
 2364 Fit      -0.002823
 2365 Fit      -0.001897
 2366 Fit      -0.001592
 2367 Fit      -0.001766
 2368 Fit      -0.002305
 2369 Fit      -0.003123
 2370 Fit      -0.012017
 2371 Fit      -0.007943
 2372 Fit      -0.005102
 2373 Fit      -0.003622
 2374 Fit      -0.003248
 2375 Fit      -0.003723
 2376 Fit      -0.004891
 2377 Fit      -0.008140
 2378 Fit      -0.005652
 2379 Fit      -0.005569
 2380 Fit      -0.008011
 2381 Fit       0.007032
 2382 Fit       0.007388
 2383 Fit       0.007347
 2384 Fit       0.007070
 2385 Fit       0.007071
 2386 Fit       0.007347
 2387 Fit       0.007891
 2388 Fit       0.008001
 2389 Fit       0.008081
 2390 Fit       0.007798
 2391 Fit       0.007798
 2392 Fit       0.008081
 2393 Fit       0.008002
 2394 Fit       0.008427
 2395 Fit       0.008615
 2396 Fit       0.008354
 2397 Fit       0.008354
 2398 Fit       0.008615
 2399 Fit       0.008853
 2400 Fit       0.009109
 2401 Fit       0.009109
 2402 Fit       0.009012
 2403 Fit       0.009289
 2404 Fit       0.009290
 2405 Fit       0.008750
 2406 Fit       0.009061
 2407 Fit       0.009061
 2408 Fit       0.007947
 2409 Fit       0.008265
 2410 Fit       0.008265
 2411 Fit       0.006535
 2412 Fit       0.006849
 2413 Fit       0.006849
 2414 Fit       0.004505
 2415 Fit       0.004794
 2416 Fit       0.004794
 2417 Fit       0.001907
 2418 Fit       0.002168
 2419 Fit       0.002934
 2420 Fit       0.002934
 2421 Fit       0.002168
 2422 Fit      -0.001160
 2423 Fit      -0.000916
 2424 Fit      -0.000199
 2425 Fit      -0.000199
 2426 Fit      -0.000916
 2427 Fit      -0.004566
 2428 Fit      -0.004347
 2429 Fit      -0.003704
 2430 Fit      -0.002681
 2431 Fit      -0.002681
 2432 Fit      -0.003704
 2433 Fit      -0.004347
 2434 Fit      -0.008158
 2435 Fit      -0.007967
 2436 Fit      -0.007408
 2437 Fit      -0.006518
 2438 Fit      -0.005367
 2439 Fit       0.001829
 2440 Fit       0.001829
 2441 Fit      -0.005366
 2442 Fit      -0.006518
 2443 Fit      -0.007408
 2444 Fit      -0.007967
 2445 Fit      -0.011774
 2446 Fit      -0.011596
 2447 Fit      -0.011074
 2448 Fit      -0.010246
 2449 Fit      -0.009177
 2450 Fit      -0.007958
 2451 Fit      -0.006694
 2452 Fit      -0.005488
 2453 Fit      -0.004409
 2454 Fit      -0.003477
 2455 Fit      -0.002656
 2456 Fit      -0.001856
 2457 Fit      -0.000931
 2458 Fit      -0.000931
 2459 Fit      -0.001856
 2460 Fit      -0.002656
 2461 Fit      -0.003477
 2462 Fit      -0.004409
 2463 Fit      -0.005488
 2464 Fit      -0.006694
 2465 Fit      -0.007958
 2466 Fit      -0.009177
 2467 Fit      -0.010246
 2468 Fit      -0.011074
 2469 Fit      -0.011596
 2470 Fit      -0.015254
 2471 Fit      -0.015080
 2472 Fit      -0.014572
 2473 Fit      -0.013768
 2474 Fit      -0.012732
 2475 Fit      -0.011549
 2476 Fit      -0.010307
 2477 Fit      -0.009085
 2478 Fit      -0.007922
 2479 Fit      -0.006812
 2480 Fit      -0.005698
 2481 Fit      -0.004470
 2482 Fit      -0.004470
 2483 Fit      -0.005698
 2484 Fit      -0.006811
 2485 Fit      -0.007922
 2486 Fit      -0.009084
 2487 Fit      -0.010307
 2488 Fit      -0.011548
 2489 Fit      -0.012732
 2490 Fit      -0.013768
 2491 Fit      -0.014572
 2492 Fit      -0.015080
 2493 Fit      -0.018444
 2494 Fit      -0.018273
 2495 Fit      -0.017774
 2496 Fit      -0.016986
 2497 Fit      -0.015967
 2498 Fit      -0.014792
 2499 Fit      -0.013534
 2500 Fit      -0.012247
 2501 Fit      -0.010950
 2502 Fit      -0.009623
 2503 Fit      -0.008202
 2504 Fit      -0.008202
 2505 Fit      -0.009622
 2506 Fit      -0.010950
 2507 Fit      -0.012247
 2508 Fit      -0.013534
 2509 Fit      -0.014792
 2510 Fit      -0.015967
 2511 Fit      -0.016985
 2512 Fit      -0.017774
 2513 Fit      -0.018273
 2514 Fit      -0.021204
 2515 Fit      -0.021024
 2516 Fit      -0.020500
 2517 Fit      -0.019672
 2518 Fit      -0.018601
 2519 Fit      -0.017357
 2520 Fit      -0.016001
 2521 Fit      -0.014570
 2522 Fit      -0.013073
 2523 Fit      -0.011488
 2524 Fit      -0.011487
 2525 Fit      -0.013073
 2526 Fit      -0.014570
 2527 Fit      -0.016000
 2528 Fit      -0.017356
 2529 Fit      -0.018601
 2530 Fit      -0.019672
 2531 Fit      -0.020500
 2532 Fit      -0.021024
 2533 Fit      -0.023412
 2534 Fit      -0.023220
 2535 Fit      -0.022658
 2536 Fit      -0.021770
 2537 Fit      -0.020621
 2538 Fit      -0.019276
 2539 Fit      -0.017793
 2540 Fit      -0.016212
 2541 Fit      -0.014560
 2542 Fit      -0.012876
 2543 Fit      -0.012875
 2544 Fit      -0.014560
 2545 Fit      -0.016212
 2546 Fit      -0.017793
 2547 Fit      -0.019276
 2548 Fit      -0.020620
 2549 Fit      -0.021770
 2550 Fit      -0.022658
 2551 Fit      -0.023220
 2552 Fit      -0.024970
 2553 Fit      -0.024723
 2554 Fit      -0.024008
 2555 Fit      -0.022891
 2556 Fit      -0.021467
 2557 Fit      -0.019832
 2558 Fit      -0.018082
 2559 Fit      -0.016332
 2560 Fit      -0.014759
 2561 Fit      -0.014758
 2562 Fit      -0.016331
 2563 Fit      -0.018082
 2564 Fit      -0.019832
 2565 Fit      -0.021467
 2566 Fit      -0.022891
 2567 Fit      -0.024007
 2568 Fit      -0.024723
 2569 Fit      -0.025805
 2570 Fit      -0.025497
 2571 Fit      -0.024616
 2572 Fit      -0.023274
 2573 Fit      -0.021628
 2574 Fit      -0.019869
 2575 Fit      -0.018231
 2576 Fit      -0.016983
 2577 Fit      -0.016983
 2578 Fit      -0.018231
 2579 Fit      -0.019869
 2580 Fit      -0.021628
 2581 Fit      -0.023274
 2582 Fit      -0.024616
 2583 Fit      -0.025497
 2584 Fit      -0.025877
 2585 Fit      -0.025411
 2586 Fit      -0.024137
 2587 Fit      -0.022398
 2588 Fit      -0.020677
 2589 Fit      -0.019474
 2590 Fit      -0.019062
 2591 Fit      -0.019474
 2592 Fit      -0.020677
 2593 Fit      -0.022398
 2594 Fit      -0.024137
 2595 Fit      -0.025410
 2596 Fit      -0.025182
 2597 Fit      -0.024296
 2598 Fit      -0.022535
 2599 Fit      -0.021672
 2600 Fit      -0.022535
 2601 Fit      -0.024296
 2602 Fit      -0.023754
 2603 Fit       0.008738
 2604 Fit       0.008996
 2605 Fit       0.008648
 2606 Fit       0.009107
 2607 Fit       0.009447
 2608 Fit       0.009624
 2609 Fit       0.009480
 2610 Fit       0.009000
 2611 Fit       0.009335
 2612 Fit       0.009634
 2613 Fit       0.009941
 2614 Fit       0.010121
 2615 Fit       0.010085
 2616 Fit       0.009802
 2617 Fit       0.009293
 2618 Fit       0.008666
 2619 Fit       0.009316
 2620 Fit       0.009575
 2621 Fit       0.009927
 2622 Fit       0.010243
 2623 Fit       0.010432
 2624 Fit       0.010439
 2625 Fit       0.010243
 2626 Fit       0.009840
 2627 Fit       0.009253
 2628 Fit       0.008945
 2629 Fit       0.009191
 2630 Fit       0.009582
 2631 Fit       0.009987
 2632 Fit       0.010315
 2633 Fit       0.010506
 2634 Fit       0.010530
 2635 Fit       0.010371
 2636 Fit       0.010026
 2637 Fit       0.009488
 2638 Fit       0.008123
 2639 Fit       0.008387
 2640 Fit       0.008821
 2641 Fit       0.009300
 2642 Fit       0.009736
 2643 Fit       0.010073
 2644 Fit       0.010276
 2645 Fit       0.010329
 2646 Fit       0.010226
 2647 Fit       0.009964
 2648 Fit       0.009528
 2649 Fit       0.006749
 2650 Fit       0.007106
 2651 Fit       0.007643
 2652 Fit       0.008231
 2653 Fit       0.008780
 2654 Fit       0.009236
 2655 Fit       0.009563
 2656 Fit       0.009747
 2657 Fit       0.009785
 2658 Fit       0.009678
 2659 Fit       0.009425
 2660 Fit       0.008998
 2661 Fit       0.004729
 2662 Fit       0.005246
 2663 Fit       0.005923
 2664 Fit       0.006638
 2665 Fit       0.007310
 2666 Fit       0.007888
 2667 Fit       0.008341
 2668 Fit       0.008657
 2669 Fit       0.008835
 2670 Fit       0.008884
 2671 Fit       0.008815
 2672 Fit       0.008631
 2673 Fit       0.002747
 2674 Fit       0.003635
 2675 Fit       0.004524
 2676 Fit       0.005346
 2677 Fit       0.006057
 2678 Fit       0.006633
 2679 Fit       0.007066
 2680 Fit       0.007362
 2681 Fit       0.007535
 2682 Fit       0.007610
 2683 Fit       0.007615
 2684 Fit       0.000798
 2685 Fit       0.001945
 2686 Fit       0.002968
 2687 Fit       0.003835
 2688 Fit       0.004531
 2689 Fit       0.005061
 2690 Fit       0.005441
 2691 Fit       0.005703
 2692 Fit       0.005896
 2693 Fit       0.006096
 2694 Fit      -0.002631
 2695 Fit      -0.001154
 2696 Fit       0.000109
 2697 Fit       0.001145
 2698 Fit       0.001959
 2699 Fit       0.002571
 2700 Fit       0.003022
 2701 Fit       0.003375
 2702 Fit      -0.003384
 2703 Fit      -0.002180
 2704 Fit      -0.001260
 2705 Fit      -0.000578
 2706 Fit       0.008738
 2707 Fit       0.008648
 2708 Fit       0.008997
 2709 Fit       0.009107
 2710 Fit       0.009001
 2711 Fit       0.009480
 2712 Fit       0.009624
 2713 Fit       0.009447
 2714 Fit       0.009335
 2715 Fit       0.008666
 2716 Fit       0.009293
 2717 Fit       0.009802
 2718 Fit       0.010085
 2719 Fit       0.010121
 2720 Fit       0.009941
 2721 Fit       0.009634
 2722 Fit       0.009316
 2723 Fit       0.009253
 2724 Fit       0.009841
 2725 Fit       0.010243
 2726 Fit       0.010440
 2727 Fit       0.010432
 2728 Fit       0.010243
 2729 Fit       0.009927
 2730 Fit       0.009575
 2731 Fit       0.008945
 2732 Fit       0.009488
 2733 Fit       0.010026
 2734 Fit       0.010371
 2735 Fit       0.010530
 2736 Fit       0.010506
 2737 Fit       0.010315
 2738 Fit       0.009987
 2739 Fit       0.009582
 2740 Fit       0.009191
 2741 Fit       0.008123
 2742 Fit       0.009528
 2743 Fit       0.009964
 2744 Fit       0.010226
 2745 Fit       0.010329
 2746 Fit       0.010276
 2747 Fit       0.010073
 2748 Fit       0.009736
 2749 Fit       0.009300
 2750 Fit       0.008821
 2751 Fit       0.008387
 2752 Fit       0.006749
 2753 Fit       0.008997
 2754 Fit       0.009425
 2755 Fit       0.009678
 2756 Fit       0.009785
 2757 Fit       0.009747
 2758 Fit       0.009563
 2759 Fit       0.009236
 2760 Fit       0.008780
 2761 Fit       0.008231
 2762 Fit       0.007643
 2763 Fit       0.007106
 2764 Fit       0.004729
 2765 Fit       0.008630
 2766 Fit       0.008815
 2767 Fit       0.008884
 2768 Fit       0.008835
 2769 Fit       0.008657
 2770 Fit       0.008341
 2771 Fit       0.007888
 2772 Fit       0.007310
 2773 Fit       0.006638
 2774 Fit       0.005923
 2775 Fit       0.005246
 2776 Fit       0.007614
 2777 Fit       0.007610
 2778 Fit       0.007535
 2779 Fit       0.007362
 2780 Fit       0.007066
 2781 Fit       0.006633
 2782 Fit       0.006057
 2783 Fit       0.005346
 2784 Fit       0.004524
 2785 Fit       0.003635
 2786 Fit       0.002748
 2787 Fit       0.006096
 2788 Fit       0.005896
 2789 Fit       0.005703
 2790 Fit       0.005441
 2791 Fit       0.005061
 2792 Fit       0.004531
 2793 Fit       0.003835
 2794 Fit       0.002968
 2795 Fit       0.001945
 2796 Fit       0.000798
 2797 Fit       0.003375
 2798 Fit       0.003022
 2799 Fit       0.002571
 2800 Fit       0.001958
 2801 Fit       0.001145
 2802 Fit       0.000109
 2803 Fit      -0.001154
 2804 Fit      -0.002631
 2805 Fit      -0.000579
 2806 Fit      -0.001260
 2807 Fit      -0.002180
 2808 Fit      -0.003384
 -----------------------------------------------------------------
 Leave Link  602 at Tue Feb 14 16:34:00 2023, MaxMem=  3758096384 cpu:               3.2 elap:               0.1

 Test job not archived.
 1\1\GINC-RAYL8\SP\RB3LYP\Aug-CC-pVDZ\C1H5N1\ZHUQIANG\14-Feb-2023\0\\#b
 3lyp/aug-cc-pvdz #SCF=tight #maxdisk=200GB #Pop=MK iop(6/33=2) iop(6/4
 2=6) iop(6/43=20) #IOP(5/87=12) #density=current\\B2 MP2/6-311++G(d,p)
  coordinates\\0,1\C,0,-0.7080955034,-0.0000008935,0.0177128235\H,0,-1.
 1129638701,-0.8805138632,-0.4862712712\H,0,-1.0743798168,-0.0000873891
 ,1.0536303634\H,0,-1.1129434542,0.8806111417,-0.4861140997\N,0,0.75028
 79567,-0.0000007803,-0.1221367972\H,0,1.1484195463,0.8136546673,0.3337
 178779\H,0,1.1484249182,-0.8136537331,0.3337177689\\Version=ES64L-G16R
 evA.03\State=1-A\HF=-95.8737849\RMSD=2.076e-09\Dipole=-0.1039125,0.000
 0038,0.5095135\Quadrupole=-0.0043425,1.0688105,-1.064468,-0.0000232,1.
 5234248,0.0000075\PG=C01 [X(C1H5N1)]\\@


 FLOATING POINT NUMBERS ARE LIKE SANDPILES:
 EVERY TIME THAT YOU MOVE ONE, YOU LOSE A LITTLE SAND 
 AND YOU PICK UP A LITTLE DIRT.
 Job cpu time:       0 days  0 hours  2 minutes 41.2 seconds.
 Elapsed time:       0 days  0 hours  0 minutes  6.1 seconds.
 File lengths (MBytes):  RWF=     10 Int=      0 D2E=      0 Chk=      2 Scr=      1
 Normal termination of Gaussian 16 at Tue Feb 14 16:34:00 2023.
